38
	Energy:      -4.8813348
C        -10.36246        2.40327        0.05363
C         -9.15971        2.48031        0.04062
H        -11.41855        2.33557        0.06501
C         -7.75094        2.57042        0.02531
C         -6.54823        2.64713        0.01217
C         -5.13953        2.73659       -0.00328
C         -3.93681        2.81252       -0.01641
C         -2.52807        2.90082       -0.03151
C         -1.32528        2.97556       -0.04385
C          0.08355        3.06228       -0.05721
C          1.28644        3.13558       -0.06714
C          2.69540        3.22056       -0.07639
C          3.89840        3.29239       -0.08148
C          5.30747        3.37573       -0.08337
C          6.51055        3.44627       -0.08065
C          7.91966        3.52825       -0.07156
C          9.12272        3.59779       -0.05795
C         10.53172        3.67880       -0.03447
C         11.73458        3.74766       -0.00739
C         13.14323        3.82798        0.03295
C         14.34570        3.89628        0.07500
C         15.75377        3.97592        0.13316
C         16.95565        4.04351        0.19024
C         18.36299        4.12202        0.26537
C         19.56424        4.18828        0.33597
C         20.97086        4.26470        0.42548
C         22.17156        4.32859        0.50682
C         23.57767        4.40151        0.60691
C         24.77805        4.46179        0.69551
C         26.18395        4.52982        0.80203
C         27.38428        4.58553        0.89449
C         28.79024        4.64796        1.00385
C         29.99069        4.69899        1.09759
C         31.39685        4.75639        1.20746
C         32.59749        4.80379        1.30114
C         34.00393        4.85798        1.41066
C         35.20472        4.90365        1.50404
H         36.25912        4.94343        1.58596
