TACC: Starting up job 7161382
TACC: Setting up parallel environment for MVAPICH2+mpispawn.
TACC: Starting parallel tasks...
 argument  1 = acetylene_restart.nw
 


============================== echo of input deck ==============================
echo

restart c36

task dft raman numerical

freq
 reuse
 temp 1 0.0
end

task dft freq
================================================================================


                                         
                                         
 
 
              Northwest Computational Chemistry Package (NWChem) 6.5
              ------------------------------------------------------
 
 
                    Environmental Molecular Sciences Laboratory
                       Pacific Northwest National Laboratory
                                Richland, WA 99352
 
                              Copyright (c) 1994-2014
                       Pacific Northwest National Laboratory
                            Battelle Memorial Institute
 
             NWChem is an open-source computational chemistry package
                        distributed under the terms of the
                      Educational Community License (ECL) 2.0
             A copy of the license is included with this distribution
                              in the LICENSE.TXT file
 
                                  ACKNOWLEDGMENT
                                  --------------

            This software and its documentation were developed at the
            EMSL at Pacific Northwest National Laboratory, a multiprogram
            national laboratory, operated for the U.S. Department of Energy
            by Battelle under Contract Number DE-AC05-76RL01830. Support
            for this work was provided by the Department of Energy Office
            of Biological and Environmental Research, Office of Basic
            Energy Sciences, and the Office of Advanced Scientific Computing.


           Job information
           ---------------

    hostname        = c405-704.stampede.tacc.utexas.edu
    program         = /opt/apps/intel15/mvapich2_2_1/nwchem/6.5/bin/nwchem
    date            = Wed Jun  8 17:37:26 2016

    compiled        = Fri_Sep_04_21:15:10_2015
    source          = /admin/build/admin/rpms/stampede//BUILD/nwchem-6.5/
    nwchem branch   = 6.5
    nwchem revision = 26243
    ga revision     = 10506
    input           = acetylene_restart.nw
    prefix          = c36.
    data base       = ./c36.db
    status          = restart
    nproc           =       16
    time left       =     -1s



           Memory information
           ------------------

    heap     =   13107198 doubles =    100.0 Mbytes
    stack    =   13107195 doubles =    100.0 Mbytes
    global   =   26214400 doubles =    200.0 Mbytes (distinct from heap & stack)
    total    =   52428793 doubles =    400.0 Mbytes
    verify   = yes
    hardfail = no 


           Directory information
           ---------------------
 
  0 permanent = .
  0 scratch   = .
 
 
           Previous task information
           -------------------------

    Theory    = dft                             
    Operation = freq                          
    Status    = ok                            
    Qmmm      = F
    Ignore    = F

 
           Geometries in the database
           --------------------------
 
       Name                              Natoms  Last Modified
       --------------------------------  ------  ------------------------
    1  driverinitial                         38  Tue Jun  7 16:27:40 2016  
    2  reference                             38  Tue Jun  7 16:29:52 2016  
    3  geometry                              38  Wed Jun  8 00:55:31 2016  
 
  The geometry named "geometry" is the default for restart
 
 
 
           Basis sets in the database
           --------------------------
 
       Name                              Natoms  Last Modified
        --------------------------------  ------  ------------------------
    1  ao basis                               0  Tue Jun  7 16:27:40 2016  
 
  The basis set named "ao basis" is the default AO basis for restart
 
 
 
 
                                NWChem Input Module
                                -------------------
 
 
 
                                  Raman Analysis
                                  --------------
 
 
 
                   NWChem Nuclear Hessian and Frequency Analysis
                   ---------------------------------------------
 
                       reusing previously generated Hessian
                       ------------------------------------
 
 
  Vibrational analysis via the FX method 
 
  See chapter 2 in "Molecular Vibrations" by Wilson, Decius and Cross
 
  Vib: Default input used 
 
  Nuclear Hessian passed symmetry test 
 


 ---------------------------- Atom information ----------------------------
     atom    #        X              Y              Z            mass
 --------------------------------------------------------------------------
    C        1  8.1623803D-01 -4.2540381D+01 -4.0807313D-04  1.2000000D+01
    C        2  7.1558129D-01 -4.0221281D+01  2.2607943D-03  1.2000000D+01
    H        3  9.0454018D-01 -4.4563669D+01 -2.8653012D-03  1.0078250D+00
    C        4  6.0574477D-01 -3.7680001D+01  4.9196606D-03  1.2000000D+01
    C        5  5.0419414D-01 -3.5328133D+01  6.8564660D-03  1.2000000D+01
    C        6  3.9565347D-01 -3.2817337D+01  8.2039243D-03  1.2000000D+01
    C        7  2.9338992D-01 -3.0452855D+01  8.6064113D-03  1.2000000D+01
    C        8  1.8622049D-01 -2.7953581D+01  8.0944095D-03  1.2000000D+01
    C        9  8.6284219D-02 -2.5582008D+01  6.5564440D-03  1.2000000D+01
    C       10 -1.6209134D-02 -2.3089866D+01  4.0543617D-03  1.2000000D+01
    C       11 -1.1030180D-01 -2.0713705D+01  7.1492056D-04  1.2000000D+01
    C       12 -2.0406362D-01 -1.8225581D+01 -3.2799980D-03  1.2000000D+01
    C       13 -2.8744803D-01 -1.5846236D+01 -7.6594125D-03  1.2000000D+01
    C       14 -3.6710210D-01 -1.3360398D+01 -1.2050980D-02  1.2000000D+01
    C       15 -4.3434068D-01 -1.0978646D+01 -1.6231468D-02  1.2000000D+01
    C       16 -4.9427800D-01 -8.4939683D+00 -1.9586169D-02  1.2000000D+01
    C       17 -5.4001370D-01 -6.1104407D+00 -2.2133903D-02  1.2000000D+01
    C       18 -5.7511741D-01 -3.6261966D+00 -2.3038001D-02  1.2000000D+01
    C       19 -5.9490251D-01 -1.2416536D+00 -2.2730479D-02  1.2000000D+01
    C       20 -6.0148891D-01  1.2425491D+00 -2.0191896D-02  1.2000000D+01
    C       21 -5.9275237D-01  3.6271546D+00 -1.6399567D-02  1.2000000D+01
    C       22 -5.6933913D-01  6.1115303D+00 -1.0311106D-02  1.2000000D+01
    C       23 -5.3202866D-01  8.4951938D+00 -3.4159196D-03  1.2000000D+01
    C       24 -4.7975223D-01  1.0980034D+01  5.1654562D-03  1.2000000D+01
    C       25 -4.1638225D-01  1.3361879D+01  1.3575264D-02  1.2000000D+01
    C       26 -3.3879464D-01  1.5847773D+01  2.2394032D-02  1.2000000D+01
    C       27 -2.5388193D-01  1.8227054D+01  2.9683214D-02  1.2000000D+01
    C       28 -1.5631363D-01  2.0715028D+01  3.5641817D-02  1.2000000D+01
    C       29 -5.5615102D-02  2.3090916D+01  3.8703710D-02  1.2000000D+01
    C       30  5.5697944D-02  2.5582679D+01  3.8698452D-02  1.2000000D+01
    C       31  1.6612412D-01  2.7953784D+01  3.4982075D-02  1.2000000D+01
    C       32  2.8563071D-01  3.0452482D+01  2.6941569D-02  1.2000000D+01
    C       33  4.0074719D-01  3.2816342D+01  1.5335092D-02  1.2000000D+01
    C       34  5.2346438D-01  3.5326432D+01 -7.5511068D-04  1.2000000D+01
    C       35  6.3875944D-01  3.7677594D+01 -1.8977399D-02  1.2000000D+01
    C       36  7.6364019D-01  4.0218081D+01 -4.1264242D-02  1.2000000D+01
    C       37  8.7819995D-01  4.2536436D+01 -6.2865520D-02  1.2000000D+01
    H       38  9.7870144D-01  4.4559060D+01 -8.2400212D-02  1.0078250D+00
 --------------------------------------------------------------------------




          ----------------------------------------------------
          MASS-WEIGHTED NUCLEAR HESSIAN (Hartree/Bohr/Bohr/Kamu)
          ----------------------------------------------------


               1            2            3            4            5            6            7            8            9           10
   ----- ----- ----- ----- -----
    1    4.58806D+00
    2   -4.73794D+00  1.13172D+02
    3   -5.56280D-03  1.27567D-01  4.38201D+00
    4   -3.82672D+00  3.02142D+00  3.51535D-03  7.36423D+00
    5    3.06625D+00 -7.42798D+01 -8.18090D-02 -4.51224D+00  1.11252D+02
    6    3.42928D-03 -7.87613D-02 -3.69481D+00 -5.09039D-03  1.16890D-01  7.17131D+00
    7   -6.22616D+00  4.95160D+00  5.96545D-03  1.38587D+00 -1.06613D-01 -1.58290D-04  1.34477D+01
    8    4.90606D+00 -1.18519D+02 -1.35649D-01 -8.40759D-02  3.32150D+00  2.40773D-03 -1.68476D+01  3.99096D+02
    9    6.00894D-03 -1.37815D-01 -6.00823D+00 -1.58867D-04  3.73689D-03  1.38111D+00 -2.03024D-02  4.66542D-01  1.27048D+01
   10    1.12713D+00  4.26291D-01  4.59991D-04 -5.17295D+00  1.10236D+00  1.16187D-03  9.69325D-01  5.45515D-02  7.19061D-05  7.27888D+00
   11    3.51632D-01 -6.99380D+00 -8.78300D-03  1.16731D+00 -3.21280D+01 -2.80860D-02  6.83459D-02 -5.97180D-01 -2.10922D-03 -4.27659D+00
   12    5.75782D-04 -1.33672D-02  1.14175D+00  1.12740D-03 -2.58236D-02 -5.11986D+00 -9.10847D-05  1.96744D-03  9.58774D-01 -3.94002D-03
   13   -2.09876D-01 -1.43897D-01 -1.54576D-04  1.26812D+00  5.08233D-01  4.98475D-04  1.12637D-01 -1.74938D-01 -1.87307D-04 -4.56355D+00
   14   -1.70713D-01  3.72241D+00  4.30484D-03  4.30285D-01 -8.66579D+00 -9.84769D-03  1.48657D-02 -2.51376D-01 -2.74601D-04  2.37208D+00
   15   -1.33215D-04  3.03852D-03 -2.18204D-01  4.74743D-04 -1.12655D-02  1.28885D+00 -1.62008D-04  4.02779D-03  1.03713D-01  1.98222D-03
   16    2.11522D-01  6.43177D-02  6.73840D-05 -2.45281D-01 -2.09633D-01 -2.15685D-04 -2.03925D-01  4.15753D-02  5.54149D-05  1.27759D+00
   17    6.34964D-02 -1.25332D+00 -1.42950D-03 -2.06655D-01  4.52052D+00  4.71978D-03  5.03002D-02 -1.32727D+00 -1.49843D-03  4.83813D-01
   18   -1.11854D-06  8.50266D-05  2.17321D-01 -1.28284D-04  2.77578D-03 -2.58748D-01  1.16935D-04 -2.54971D-03 -1.93283D-01  3.69759D-04
   19   -1.28479D-01 -9.33134D-02 -9.72227D-05  3.44305D-01  1.61623D-01  1.79944D-04  7.55948D-02 -5.14123D-02 -1.05327D-04 -4.51089D-01
   20   -6.05391D-02  1.26457D+00  1.51012D-03  1.29295D-01 -2.63344D+00 -2.86926D-03  9.96032D-03 -1.59349D-01 -3.14789D-04 -2.75720D-01
   21   -1.58625D-05  4.57389D-04 -1.32687D-01  3.91523D-05 -6.16446D-04  3.52188D-01 -3.68428D-05  3.67188D-04  7.39640D-02 -1.12422D-04
   22    5.55723D-02  4.52868D-02  4.54048D-05 -2.13558D-01 -1.04289D-01 -1.01620D-04  2.77056D-03  5.58261D-02  6.50401D-05  3.56790D-01
   23    3.97926D-02 -8.63195D-01 -1.02779D-03 -8.20096D-02  1.68073D+00  1.84276D-03 -6.70538D-03  1.51068D-01  2.53294D-04  1.63602D-01
   24    1.20763D-05 -3.07692D-04  5.56459D-02 -1.96729D-06  3.05027D-05 -2.16456D-01  6.63452D-05 -1.47562D-03  9.51215D-04 -1.94168D-05
   25   -2.71446D-02 -3.93028D-02 -4.36896D-05  1.01507D-01  6.80470D-02  6.37283D-05  6.95056D-03 -1.11123D-02 -1.55986D-06 -2.01434D-01
   26   -2.85381D-02  6.30292D-01  7.14311D-04  5.99574D-02 -1.28184D+00 -1.36450D-03  1.71548D-03 -3.66349D-02 -1.06782D-04 -1.12672D-01
   27   -4.04175D-06  2.82843D-05 -2.87234D-02 -9.14243D-05  2.05912D-03  1.04021D-01  1.61541D-04 -3.50169D-03  6.02643D-03  1.06091D-04
   28    2.27686D-02  3.08178D-02  3.42658D-05 -4.67850D-02 -6.85304D-02 -7.02219D-05 -3.39205D-02  7.08304D-02  8.42223D-05  9.71845D-02
   29    1.97548D-02 -4.31446D-01 -4.70116D-04 -4.13868D-02  9.05388D-01  9.16708D-04 -3.94016D-03  7.02282D-02  1.48661D-04  7.76519D-02
   30    3.05084D-06  5.46989D-06  2.53924D-02  6.99773D-05 -1.56735D-03 -5.06618D-02 -9.83679D-05  2.06935D-03 -2.81410D-02 -4.97475D-05
   31   -1.21820D-02 -1.65069D-02 -2.38739D-05  2.99530D-02  1.65488D-02  8.55698D-06  6.28155D-03  4.10022D-02  7.21393D-05 -5.17591D-02
   32   -1.52491D-02  3.39248D-01  3.76831D-04  3.08502D-02 -6.83544D-01 -6.67976D-04  3.36492D-03 -6.93833D-02 -1.60070D-04 -5.93869D-02
   33    3.20977D-05 -7.62685D-04 -1.30551D-02 -1.58594D-05  3.42551D-04  3.06032D-02 -9.35477D-05  2.22526D-03  8.52349D-03  7.43994D-05
   34    4.98274D-04  1.89117D-02  2.13762D-05 -1.88443D-02 -3.10294D-02 -3.16454D-05  1.33077D-02  2.23849D-02  1.51817D-05  3.21566D-02
   35    1.05085D-02 -2.41941D-01 -2.83538D-04 -2.27179D-02  5.07716D-01  4.74667D-04 -8.22670D-04  2.73434D-02  1.45396D-04  4.28050D-02
   36   -1.71887D-05  3.81291D-04  3.74568D-04  9.22794D-05 -2.15486D-03 -1.92767D-02 -1.70289D-04  3.98398D-03  1.23853D-02 -1.26821D-04
   37   -1.36459D-03 -5.30348D-03 -6.07806D-06  7.53092D-03  9.92413D-03  1.44716D-05 -6.27485D-04  1.08162D-02  2.46448D-06 -1.71185D-02
   38   -7.94964D-03  1.82261D-01  2.06722D-04  1.60468D-02 -3.62897D-01 -3.51884D-04  4.33772D-03 -1.01880D-01 -1.45135D-04 -3.32455D-02
   39    2.11844D-06 -1.50089D-05 -1.47958D-03 -1.46421D-05  3.23242D-04  7.87674D-03 -2.99103D-05  6.50379D-04 -3.40082D-04  2.31445D-05
   40    4.33626D-03  1.02652D-02  1.43338D-05 -1.54941D-03 -5.25933D-03  6.03918D-06 -1.19680D-02 -1.99698D-02 -5.47338D-05  4.68341D-03
   41    6.58983D-03 -1.48018D-01 -1.68262D-04 -1.28075D-02  2.92997D-01  2.59134D-04 -2.23071D-03  4.52723D-02  1.52129D-04  2.52595D-02
   42   -3.61352D-05  8.52169D-04  5.40334D-03  1.18651D-05 -2.43586D-04 -2.36492D-03  5.36815D-05 -1.30203D-03 -1.15276D-02 -5.61446D-05
   43   -1.28531D-03 -3.97284D-03 -5.36885D-06  2.57969D-03  1.46123D-02  6.42794D-06  1.64152D-03 -2.32654D-02  2.80586D-07 -3.18912D-03
   44   -4.36473D-03  9.86841D-02  1.20891D-04  9.28925D-03 -2.12852D-01 -1.86535D-04  3.45278D-03 -7.70633D-02 -1.91253D-04 -1.88409D-02
   45    7.88588D-06 -2.09906D-04 -1.42102D-03 -5.13641D-05  1.17955D-03  3.15561D-03  1.15604D-04 -2.61439D-03  7.32569D-04  7.26964D-05
   46   -2.22380D-03  4.52353D-03  9.20515D-06 -3.27314D-03 -3.28995D-03  9.53219D-06  8.94973D-03 -6.09282D-03 -4.73103D-05  4.61496D-03
   47    3.75286D-03 -8.75072D-02 -1.05780D-04 -7.49936D-03  1.71557D-01  1.44758D-04 -2.58895D-03  6.26761D-02  1.70423D-04  1.60036D-02
   48   -1.32398D-05  2.88991D-04 -2.28480D-03  1.32451D-05 -3.01375D-04 -3.20861D-03 -8.48315D-06  2.08780D-04  8.14308D-03 -3.83439D-05
   49    1.10087D-04 -5.74230D-03 -6.39415D-06 -2.48104D-04  9.30643D-03  5.92022D-06  1.17209D-03 -1.51800D-02 -6.23734D-06 -7.39584D-04
   50   -2.85143D-03  6.64092D-02  8.18964D-05  6.35027D-03 -1.46123D-01 -1.18050D-04  1.04834D-03 -2.57904D-02 -1.23748D-04 -1.23379D-02
   51    2.50247D-05 -5.60366D-04 -2.27005D-05 -2.74720D-05  6.37558D-04  7.85749D-05  5.13567D-05 -1.22121D-03  4.74885D-04  5.11553D-05
   52    2.04884D-03  3.19095D-03  3.24105D-06  1.21207D-03 -4.69519D-03 -4.91527D-06 -6.85396D-03  7.38626D-03  9.23436D-06 -1.85510D-03
   53    2.16118D-03 -4.92016D-02 -6.88471D-05 -4.46378D-03  1.03257D-01  6.55720D-05 -2.58196D-03  5.83117D-02  1.79130D-04  9.87623D-03
   54   -7.95178D-06  1.80339D-04  2.38808D-03  1.60828D-05 -3.79862D-04  8.87079D-04 -4.93923D-05  1.15537D-03 -6.42484D-03 -2.48102D-05
   55    2.19323D-04 -4.53639D-03 -4.96612D-06  6.32475D-04  1.79637D-03  9.22705D-07 -7.10191D-04  1.49228D-03  2.84915D-06 -1.94281D-04
   56   -1.81933D-03  4.10996D-02  4.84635D-05  3.93645D-03 -9.11951D-02 -5.43180D-05  1.39514D-03 -3.04374D-02 -1.24054D-04 -7.95870D-03
   57    1.20080D-05 -2.65691D-04  6.71897D-05  4.25296D-06 -9.86414D-05  6.65138D-04 -1.57973D-05  3.53506D-04 -5.81069D-04  4.68023D-06
   58   -1.59935D-03  1.13034D-03  5.49915D-07 -1.03658D-03 -2.27746D-03 -4.89676D-07  4.52666D-03  5.97002D-03  4.57614D-06  1.66661D-03
   59    1.32030D-03 -3.01649D-02 -3.75207D-05 -3.02746D-03  6.99454D-02  3.49900D-05 -1.45313D-03  3.32511D-02  1.24616D-04  6.34352D-03
   60    8.09852D-06 -1.85436D-04 -1.61520D-03  7.66516D-06 -1.55380D-04 -1.18300D-03 -4.78646D-05  1.07120D-03  4.93546D-03  4.74899D-06
   61   -2.22051D-04 -1.08264D-03 -2.44739D-06 -1.92290D-04 -3.84529D-03 -5.64911D-06  3.34416D-04  1.22066D-02  1.69568D-05  9.36567D-05
   62   -1.15199D-03  2.70229D-02  4.36236D-05  2.63644D-03 -6.06435D-02 -1.90631D-05  9.12996D-04 -2.22454D-02 -1.37983D-04 -5.49892D-03
   63   -1.12131D-05  2.48245D-04 -2.41696D-04  3.45202D-05 -8.00447D-04 -4.18869D-04 -7.52669D-05  1.74106D-03  7.99633D-04 -4.86690D-05
   64    1.21557D-03 -6.11806D-04  6.29632D-07  7.50329D-04  2.13108D-03  1.92109D-06 -3.74656D-03 -4.53968D-03 -6.09223D-06 -1.00160D-03
   65    1.06177D-03 -2.48976D-02 -4.20656D-05 -2.31537D-03  5.34625D-02  1.99532D-05 -4.13644D-04  1.01876D-02  1.19900D-04  4.79122D-03
   66    2.24940D-05 -5.11655D-04  1.21523D-03 -2.94827D-05  6.76841D-04  8.11110D-04  4.77221D-05 -1.11519D-03 -3.86031D-03  6.46145D-05
   67    2.81764D-04  5.52087D-04 -2.55750D-07  4.95222D-04 -2.95488D-03 -2.36034D-06 -1.14593D-03  6.03510D-03  8.42645D-06 -4.51565D-04
   68   -8.33172D-04  1.85608D-02  3.81537D-05  1.82523D-03 -4.22355D-02 -2.01989D-05  6.03269D-04 -1.27080D-02 -1.18567D-04 -3.87399D-03
   69   -1.54890D-05  3.51306D-04  2.23018D-04  2.65873D-05 -6.12646D-04  5.52151D-04 -3.99987D-05  9.26248D-04 -9.83957D-04 -3.60845D-05
   70   -8.77044D-04  1.06586D-03  2.03295D-06 -1.13854D-03  9.06969D-03  8.89992D-06  4.33067D-03 -2.66954D-02 -3.12883D-05  1.27213D-03
   71    7.39090D-04 -1.66584D-02 -2.78811D-05 -1.48653D-03  3.46057D-02  8.58172D-06 -5.69853D-04  1.21410D-02  1.08697D-04  3.25776D-03
   72    1.32685D-09 -2.21031D-05 -9.94863D-04 -8.10177D-05  1.86439D-03 -5.06279D-04  2.28473D-04 -5.21251D-03  2.81783D-03  9.88560D-05
   73   -4.55601D-04  2.06240D-03  4.36704D-06 -4.17987D-04  2.83295D-03  2.64823D-06  1.50905D-03 -1.35708D-02 -2.04811D-05  6.42085D-04
   74   -5.48107D-04  1.32098D-02  2.43794D-05  1.36362D-03 -3.11998D-02  2.03520D-06  3.18495D-05 -2.07233D-03 -1.03887D-04 -2.81567D-03
   75   -4.66264D-05  1.06181D-03 -4.90211D-04 -2.81178D-05  6.64477D-04 -2.19939D-04  1.51837D-04 -3.48110D-03  1.00854D-03  1.88843D-06
   76    5.34244D-04  1.61992D-03  1.97076D-06  5.05343D-04  2.15451D-03  1.46370D-06 -2.22799D-03 -6.19969D-03 -5.23573D-06 -7.24547D-04
   77    5.24785D-04 -1.27009D-02 -3.20192D-05 -1.18462D-03  2.70963D-02 -2.18362D-06  1.10484D-04 -1.21183D-03  1.07049D-04  2.42326D-03
   78   -2.27508D-06  6.89556D-05  6.75896D-04  1.28062D-05 -2.94369D-04  5.26779D-04 -4.94806D-05  1.12477D-03 -2.22510D-03 -3.44894D-05
   79    3.00593D-04  1.89339D-03  1.91432D-06  4.74041D-04 -4.85012D-03  5.31580D-07 -1.34290D-03  1.00489D-02 -1.82118D-06 -6.04532D-04
   80   -4.99322D-04  1.10370D-02  2.47469D-05  1.07867D-03 -2.51307D-02  6.46124D-06 -3.26374D-04  8.58375D-03 -9.15045D-05 -2.08719D-03
   81    2.78966D-05 -6.27922D-04  3.42182D-04  6.51861D-05 -1.51142D-03  3.09672D-04 -2.17059D-04  4.97656D-03 -9.20554D-04 -7.52775D-05
   82   -4.24207D-04 -5.55105D-04 -1.33929D-06 -2.21838D-04 -5.34946D-03 -5.97101D-06  1.07064D-03  1.88587D-02  2.29424D-05 -1.25526D-04
   83    5.52363D-04 -1.22639D-02 -2.53310D-05 -1.04029D-03  2.45533D-02 -8.77354D-07  6.33476D-04 -1.59175D-02  7.41873D-05  1.95136D-03
   84    2.11150D-05 -4.69928D-04 -5.67736D-04  2.84847D-05 -6.80953D-04 -3.26814D-04 -1.14357D-04  2.62564D-03  1.66210D-03 -5.44587D-06
   85   -3.44222D-04 -7.14107D-04 -4.10712D-07  3.04081D-04 -1.24144D-02 -3.85025D-06 -7.01273D-04  3.60510D-02  1.63740D-05 -5.25238D-05
   86   -4.42481D-04  1.09854D-02  1.73649D-05  8.54565D-04 -1.99857D-02  9.50578D-06 -5.70573D-04  1.20163D-02 -6.65922D-05 -1.74304D-03
   87   -1.58938D-05  3.44834D-04 -3.79057D-04 -7.28017D-05  1.69459D-03 -2.03490D-04  2.29963D-04 -5.27091D-03  8.49775D-04  3.45547D-05
   88    3.44499D-04 -5.27136D-05 -3.08366D-07  7.86463D-05  6.38303D-03 -3.42016D-06 -7.16202D-04 -1.66453D-02  6.55344D-06 -3.35840D-04
   89    5.32069D-04 -1.27773D-02 -1.83802D-05 -9.74221D-04  2.24070D-02 -1.01770D-05  1.10835D-03 -2.45665D-02  5.53193D-05  1.76725D-03
   90    1.90409D-05 -4.28175D-04  3.98527D-04  4.37980D-05 -1.01643D-03  3.09809D-04 -1.42524D-04  3.26434D-03 -1.28064D-03  3.13970D-05
   91    2.84815D-04  2.02673D-03  2.12603D-06  3.02893D-04 -2.23115D-03 -1.00123D-06 -9.96354D-04  3.32005D-03  2.32278D-06 -3.44796D-04
   92   -4.59957D-04  1.02793D-02  2.14975D-05  6.63165D-04 -1.57792D-02  1.25205D-05 -5.67492D-04  1.41072D-02 -7.37718D-05 -1.35728D-03
   93    1.07650D-04 -2.46282D-03  3.35604D-04  3.75170D-05 -8.96603D-04  2.66151D-04 -2.35770D-04  5.41039D-03 -8.80999D-04 -3.66296D-05
   94    4.92838D-05 -6.38295D-03 -7.90413D-06 -5.30745D-04  6.94871D-03  1.61146D-06  1.51229D-03 -1.24605D-02  2.05288D-06  4.95734D-04
   95    5.09405D-04 -1.14596D-02 -1.32172D-05 -6.65802D-04  1.56250D-02 -3.07576D-05  7.17522D-04 -1.71883D-02  7.09623D-05  1.34243D-03
   96   -1.68473D-04  3.88321D-03 -3.11473D-04  1.92247D-05 -4.09417D-04 -1.69496D-04  1.28078D-04 -2.94305D-03  8.99347D-04 -6.99655D-05
   97   -4.22985D-04  1.81248D-03  4.80821D-06  1.92357D-04 -7.08274D-03  1.04718D-05 -8.13264D-05  1.83459D-02 -3.29296D-05  9.56278D-05
   98    4.13662D-03 -9.37262D-02 -1.19942D-04  1.89723D-03 -4.47131D-02 -4.39812D-06 -1.08363D-02  2.46768D-01  2.15928D-04  1.13698D-02
   99    3.23429D-05 -8.06017D-04 -3.89367D-04 -2.40188D-04  5.54827D-03 -1.84627D-04  6.79493D-04 -1.55454D-02  8.23851D-04  2.63150D-04
  100    4.25532D-04 -5.80733D-03 -8.10593D-06 -6.16594D-04  1.77998D-02  2.93946D-06  1.30684D-03 -4.55982D-02 -1.44841D-06  6.72485D-04
  101    5.00062D-04 -1.18264D-02 -1.38415D-05 -4.33278D-04  1.02219D-02 -1.80877D-05  2.37591D-04 -5.23408D-03  7.28622D-05  9.59838D-04
  102   -8.91512D-05  2.10209D-03  2.07077D-04  2.02671D-04 -4.66768D-03  1.47400D-04 -4.92645D-04  1.12761D-02 -6.53664D-04 -1.98999D-04
  103    1.43963D-04  3.46410D-03  5.85553D-06  6.49802D-04 -9.13428D-03  1.80038D-06 -1.74036D-03  2.27586D-02 -5.64504D-06 -7.08336D-04
  104   -4.89079D-04  1.10674D-02  1.74433D-05  5.17999D-04 -1.20630D-02 -8.96251D-06 -7.31833D-04  1.75034D-02  6.14649D-06 -8.40903D-04
  105    4.58909D-06 -1.83042D-04  2.88979D-04 -3.06375D-04  7.07842D-03  1.84554D-04  9.07653D-04 -2.07763D-02 -7.37563D-04  3.21652D-04
  106    9.65482D-05 -5.64787D-03 -3.82679D-06 -7.61293D-04  1.55909D-02  2.47162D-05  2.24940D-03 -4.09333D-02 -7.89955D-05  1.00544D-03
  107    2.76288D-04 -6.27874D-03  6.90726D-06 -2.89129D-04  5.96698D-03  6.26857D-05  8.06296D-04 -1.82390D-02 -1.50326D-04  7.73242D-04
  108    9.54693D-05 -2.08639D-03 -1.43994D-04  4.29088D-04 -9.92560D-03 -8.81968D-05 -1.38473D-03  3.16699D-02  4.55095D-04 -4.14105D-04
  109   -3.36730D-04  1.15475D-03 -3.49009D-06  4.36453D-04 -1.30719D-02 -1.72865D-05 -1.05756D-03  3.81332D-02  6.26373D-05 -3.49155D-04
  110    7.90553D-04 -1.80377D-02 -1.74365D-05 -3.69316D-04  9.11493D-03 -1.07866D-05 -6.14596D-04  1.32519D-02  5.53739D-05 -4.21764D-04
  111   -1.05173D-05  2.01466D-04 -2.88296D-04 -1.41310D-04  3.26434D-03 -1.25473D-04  4.33076D-04 -9.90537D-03  5.98678D-04  1.34240D-04
  112    7.46293D-04 -2.20071D-03 -1.67703D-05  1.90575D-03 -3.53667D-02 -9.68837D-05 -6.13697D-03  1.04771D-01  3.34552D-04 -1.82270D-03
  113    5.10255D-03 -1.20408D-01 -1.35463D-04 -9.37935D-03  2.16134D-01  1.19488D-04  2.45072D-02 -5.60463D-01 -3.59705D-04  1.41814D-02
  114   -4.79126D-05  1.01364D-03  6.20134D-04 -3.07089D-04  7.09271D-03  4.03664D-04  9.47327D-04 -2.16326D-02 -1.62024D-03  2.17661D-04


              11           12           13           14           15           16           17           18           19           20
   ----- ----- ----- ----- -----
   11    1.05170D+02
   12    8.98825D-02  7.09853D+00
   13    2.35774D+00  1.95315D-03  6.90085D+00
   14   -5.93799D+01 -4.55762D-02 -4.24875D+00  1.04339D+02
   15   -4.55870D-02 -4.46009D+00 -3.12167D-03  7.14016D-02  6.71993D+00
   16    5.70908D-01  4.30770D-04 -4.62126D+00  1.16977D+00  6.29935D-04  6.99169D+00
   17   -9.90481D+00 -8.24598D-03  1.22286D+00 -3.28632D+01 -1.52254D-02 -4.19657D+00  1.03156D+02
   18   -8.54858D-03  1.29885D+00  6.89906D-04 -1.54264D-02 -4.56860D+00 -1.36401D-03  3.03108D-02  6.81340D+00
   19   -2.86793D-01 -2.09587D-04  1.25859D+00  6.14840D-01  2.79725D-04 -4.67818D+00  2.17705D+00  3.78927D-04  7.25508D+00
   20    5.91583D+00  4.86055D-03  5.41803D-01 -1.12514D+01 -6.18103D-03  2.17550D+00 -5.48713D+01 -8.57579D-03 -4.13229D+00  1.02284D+02
   21    2.35115D-03 -4.64220D-01  1.59155D-04 -4.11811D-03  1.28255D+00  4.25724D-04 -9.50963D-03 -4.58347D+00 -9.58459D-05  2.18499D-03
   22    1.33543D-01  9.69025D-05 -2.75437D-01 -2.81372D-01 -1.39217D-04  1.39524D+00  6.23034D-01  8.45642D-05 -4.95742D+00  1.16876D+00
   23   -3.41980D+00 -2.81656D-03 -2.71334D-01  5.98614D+00  3.30639D-03  5.75886D-01 -1.19372D+01 -1.22208D-03  1.17957D+00 -3.24253D+01
   24    5.57579D-04  3.65553D-01  2.20936D-05 -6.26423D-04 -2.89504D-01 -1.50914D-04  3.72010D-03  1.41963D+00 -1.53557D-04  3.44515D-03
   25   -1.47070D-01 -1.15536D-04  3.54494D-01  1.86400D-01  1.20686D-04 -5.34423D-01 -3.08181D-01 -2.40611D-05  1.50406D+00  6.47447D-01
   26    2.40331D+00  2.03145D-03  1.79166D-01 -3.78719D+00 -2.16219D-03 -3.21407D-01  6.90432D+00  1.05370D-03  5.90963D-01 -1.23031D+01
   27   -2.44964D-03 -2.07809D-01 -9.49093D-05  2.42611D-03  3.63893D-01  1.85437D-04 -4.44502D-03 -5.48547D-01 -3.99083D-04  9.23479D-03
   28    1.02957D-01  7.44427D-05 -2.18766D-01 -1.32947D-01 -8.56034D-05  4.14263D-01  1.60628D-01  1.32183D-05 -4.37820D-01 -3.10052D-01
   29   -1.70129D+00 -1.45797D-03 -1.18437D-01  2.52540D+00  1.53431D-03  1.95220D-01 -4.11100D+00 -6.06657D-04 -3.06660D-01  6.71533D+00
   30    1.06767D-03  9.96950D-02  1.09657D-04 -2.66770D-03 -2.24193D-01 -1.73177D-04  4.16930D-03  4.23544D-01  2.77186D-04 -6.60506D-03
   31   -5.01951D-02 -3.22544D-05  1.05952D-01  8.04382D-02  4.66812D-05 -2.32986D-01 -1.35969D-01 -3.34798D-05  4.42236D-01  1.83863D-01
   32    1.32314D+00  1.10073D-03  8.90229D-02 -1.95486D+00 -1.24482D-03 -1.36363D-01  2.92819D+00  5.94244D-04  2.02396D-01 -4.28717D+00
   33   -1.64868D-03 -5.36543D-02 -1.24788D-04  2.89164D-03  1.09304D-01  1.96323D-04 -4.63036D-03 -2.39359D-01 -2.77199D-04  6.57072D-03
   34    6.19274D-02  4.78182D-05 -4.98932D-02 -6.82892D-02 -4.16257D-05  1.14105D-01  8.89684D-02  3.04148D-06 -2.64670D-01 -1.34175D-01
   35   -9.56934D-01 -7.62593D-04 -6.50611D-02  1.45457D+00  9.01142D-04  9.71683D-02 -2.13708D+00 -5.37069D-04 -1.35469D-01  2.90219D+00
   36    2.95410D-03  3.58859D-02  1.13006D-04 -2.53775D-03 -5.30921D-02 -1.80847D-04  4.15158D-03  1.16433D-01  2.57060D-04 -6.16586D-03
   37   -2.24626D-02 -1.95447D-05  3.05761D-02  3.81917D-02  1.87579D-05 -6.05365D-02 -6.40696D-02 -1.32233D-05  1.30047D-01  7.91652D-02
   38    7.52248D-01  6.12014D-04  4.94598D-02 -1.11482D+00 -6.89655D-04 -7.53617D-02  1.68484D+00  4.08470D-04  1.03264D-01 -2.27660D+00
   39   -5.38444D-04 -1.81261D-02 -6.24327D-05  1.39851D-03  3.22758D-02  1.39091D-04 -3.13450D-03 -6.30759D-02 -1.56109D-04  3.62216D-03
   40    2.25786D-02  1.19056D-05 -1.93572D-02 -3.16704D-02 -1.95862D-05  3.82782D-02  4.49016D-02  4.57083D-06 -6.36364D-02 -5.83798D-02
   41   -5.79682D-01 -4.70448D-04 -3.78239D-02  8.57855D-01  5.25073D-04  5.53460D-02 -1.24529D+00 -2.70844D-04 -7.68278D-02  1.72641D+00
   42    1.24896D-03  4.94644D-03  8.05311D-05 -1.85949D-03 -2.04667D-02 -8.78151D-05  1.99853D-03  4.07280D-02  1.43226D-04 -3.20436D-03
   43   -2.37924D-02 -1.54839D-05  7.38750D-03  2.21809D-02  1.28473D-05 -1.91521D-02 -3.67724D-02  8.96042D-07  3.80522D-02  4.42717D-02
   44    4.33760D-01  3.66815D-04  2.86178D-02 -6.54486D-01 -3.95176D-04 -4.35599D-02  9.90006D-01  2.07788D-04  5.86541D-02 -1.33244D+00
   45   -1.65520D-03 -4.17887D-03 -4.67876D-05  1.08881D-03  8.28223D-03  1.01629D-04 -2.37439D-03 -2.07763D-02 -1.17206D-04  2.63621D-03
   46    1.30275D-02  8.59364D-06 -1.64761D-03 -1.45579D-02 -1.14682D-05  5.67782D-03  2.53440D-02 -2.15874D-06 -2.33041D-02 -2.66850D-02
   47   -3.66989D-01 -3.10441D-04 -2.28340D-02  5.25766D-01  3.24452D-04  3.34207D-02 -7.67644D-01 -1.46857D-04 -4.52064D-02  1.03466D+00
   48    8.92437D-04  5.53184D-03  2.70687D-05 -6.09671D-04 -2.36097D-03 -6.46892D-05  1.48712D-03  6.42763D-03  6.57040D-05 -1.51311D-03
   49   -1.80457D-02 -1.42016D-05  2.90027D-03  1.47901D-02  1.32883D-05 -4.35602D-03 -1.58968D-02  3.71640D-06  8.90382D-03  2.29200D-02
   50    2.83944D-01  2.35421D-04  1.84736D-02 -4.26227D-01 -2.59045D-04 -2.60314D-02  6.00267D-01  1.41579D-04  3.48780D-02 -8.04608D-01
   51   -1.19434D-03 -1.59589D-03 -3.62263D-05  8.22299D-04  3.56171D-03  2.25841D-05 -4.95905D-04 -4.94829D-03 -4.92735D-05  1.16609D-03
   52    1.15358D-02  8.64124D-06 -3.01977D-03 -8.24666D-03 -7.40144D-06  5.33270D-03  1.32229D-02 -1.45573D-06 -2.85803D-03 -1.35052D-02
   53   -2.28915D-01 -1.87234D-04 -1.45823D-02  3.36354D-01  2.17211D-04  2.15288D-02 -4.96577D-01 -1.12403D-04 -2.75107D-02  6.38458D-01
   54    5.85152D-04 -1.48294D-03  8.02540D-06 -1.78577D-04 -3.41047D-03 -1.62453D-05  3.63719D-04  6.03601D-03  1.22764D-05 -2.87768D-04
   55   -8.14308D-03 -3.90525D-06 -2.54382D-04  6.98279D-03  3.94793D-06 -1.58740D-03 -4.59772D-03  4.76871D-06  4.08591D-03  8.17924D-03
   56    1.85065D-01  1.51678D-04  1.21810D-02 -2.81272D-01 -1.75977D-04 -1.67266D-02  3.85743D-01  9.01884D-05  2.21024D-02 -5.14925D-01
   57   -1.11294D-04 -5.35124D-04  1.07510D-06 -2.16626D-05  2.39490D-05 -1.15712D-05  2.70376D-04 -1.78469D-03  8.62834D-06 -2.02751D-04
   58    4.83475D-03  2.42441D-06  1.08150D-03 -2.35854D-03 -2.00490D-06 -1.41237D-03  2.12134D-03 -2.93349D-06 -3.47671D-03 -3.21062D-03
   59   -1.47193D-01 -1.19177D-04 -9.75192D-03  2.25847D-01  1.27880D-04  1.38385D-02 -3.20014D-01 -5.92172D-05 -1.76921D-02  4.11914D-01
   60   -1.20583D-04  2.02015D-03 -2.38022D-05  5.36759D-04  9.68046D-04  1.91193D-05 -4.37785D-04 -1.35486D-03 -2.55312D-05  6.13689D-04
   61    1.76925D-03  2.77217D-06  9.03299D-04 -2.91611D-04  1.14075D-06 -7.26297D-04  2.09367D-03  5.56638D-07  4.20249D-05 -2.17694D-03
   62    1.26537D-01  9.23869D-05  8.25864D-03 -1.91694D-01 -1.23101D-04 -1.10037D-02  2.55902D-01  4.67361D-05  1.46933D-02 -3.42248D-01
   63    1.13596D-03  2.13667D-04  3.86953D-05 -8.79907D-04  9.07213D-04 -4.13030D-05  9.38405D-04 -5.81704D-04  5.50023D-05 -1.29004D-03
   64   -3.32719D-03 -3.24209D-06 -1.37041D-03  2.53855D-03  6.77204D-07  2.08652D-03 -4.18636D-03  1.17518D-06  7.60933D-04  4.98290D-03
   65   -1.10529D-01 -8.86141D-05 -6.96063D-03  1.61581D-01  1.08408D-04  9.23399D-03 -2.14724D-01 -4.53889D-05 -1.20567D-02  2.81160D-01
   66   -1.50130D-03 -1.20693D-03 -5.13091D-05  1.17882D-03 -1.26824D-03  4.94290D-05 -1.13162D-03  1.99156D-03 -7.46453D-05  1.72903D-03
   67    1.38742D-03  9.96853D-07 -3.77077D-04 -2.49935D-03 -1.53810D-06  8.41272D-05  1.55931D-03 -8.29871D-07  1.23195D-03 -3.06043D-03
   68    9.01478D-02  7.69749D-05  5.77218D-03 -1.33184D-01 -8.02252D-05 -7.67413D-03  1.77054D-01  2.46121D-05  9.94306D-03 -2.32567D-01
   69    8.37318D-04 -4.90484D-04  3.70827D-05 -8.49875D-04 -5.13484D-04 -3.27273D-05  7.48640D-04  1.60793D-04  4.16184D-05 -9.76339D-04
   70   -9.55967D-03 -6.68813D-06  7.15297D-04  3.16781D-03  3.21321D-06 -6.46062D-04 -1.07953D-02  8.11950D-07 -1.67303D-03  8.64557D-03
   71   -7.61860D-02 -6.90165D-05 -4.81582D-03  1.11460D-01  7.53487D-05  6.30298D-03 -1.45471D-01 -1.65257D-05 -8.16454D-03  1.91111D-01
   72   -2.26610D-03  9.20073D-04 -3.77521D-05  8.62250D-04  8.24418D-04  9.80260D-05 -2.28534D-03 -1.24641D-03 -7.65336D-05  1.74530D-03
   73   -5.65059D-03 -5.80639D-06  6.29415D-04 -2.83126D-03  7.35046D-07 -1.47543D-04 -6.79452D-03  2.70416D-06 -6.64904D-04  7.14476D-04
   74    6.47164D-02  4.78876D-05  4.00224D-03 -9.35800D-02 -6.92424D-05 -5.28598D-03  1.23414D-01  3.14743D-05  6.83230D-03 -1.58638D-01
   75   -5.56570D-05  3.93570D-04  5.38676D-05 -1.24475D-03  5.84732D-04  4.81456D-05 -1.11766D-03 -4.58452D-04  2.44808D-05 -5.84088D-04
   76    2.62430D-03  1.50970D-06 -7.33326D-04  7.49109D-04 -8.58054D-07  8.02584D-04  2.20879D-03 -1.19286D-06  8.28130D-04  7.35295D-04
   77   -5.53934D-02 -3.39151D-05 -3.41026D-03  7.92183D-02  5.91190D-05  4.19507D-03 -9.79841D-02 -2.84068D-05 -5.60746D-03  1.30650D-01
   78    7.86309D-04 -7.77499D-04 -2.11576D-06  5.24605D-05 -5.64155D-04 -3.05673D-05  7.22342D-04  9.46897D-04  1.16743D-05 -2.42914D-04
   79    4.04934D-03  1.54393D-07 -2.30526D-04 -4.58198D-03 -2.14222D-06  3.27724D-04  2.15856D-03 -8.44626D-08  8.27409D-04 -4.15752D-03
   80    4.86362D-02  3.14918D-05  2.93546D-03 -6.73545D-02 -4.67832D-05 -3.69952D-03  8.51768D-02  1.63647D-05  4.62079D-03 -1.08873D-01
   81    1.74185D-03 -4.58637D-04 -4.77176D-06  1.34965D-04 -3.68481D-04 -1.27182D-04  2.93901D-03  3.79685D-04  4.74768D-05 -1.06640D-03
   82    1.32513D-02  1.17875D-05  4.96263D-04  7.16834D-04 -3.29579D-06 -1.35486D-03  1.63591D-02 -4.53454D-06 -3.94497D-04 -6.35718D-03
   83   -4.59481D-02 -2.76223D-05 -2.56390D-03  5.89581D-02  3.15638D-05  3.02893D-03 -6.93641D-02 -6.01446D-06 -3.89792D-03  9.14469D-02
   84    1.40374D-04  5.18782D-04 -1.84323D-05  4.13077D-04  5.51749D-04 -1.94636D-05  4.62864D-04 -7.76174D-04 -7.15334D-06  1.74323D-04
   85    1.09662D-02  7.28769D-06  5.41643D-04 -3.49548D-03 -3.76215D-06 -9.11109D-04  1.06727D-02 -4.66243D-06 -2.63467D-04 -6.64207D-03
   86    4.00399D-02  2.67302D-05  2.12894D-03 -4.94833D-02 -2.61177D-05 -2.62413D-03  6.09687D-02 -5.06278D-06  3.30802D-03 -7.64372D-02
   87   -8.01908D-04  3.55759D-04  6.13859D-06 -1.47701D-04  4.47841D-04  4.39624D-05 -1.01931D-03 -4.62942D-04  5.64186D-06 -1.40687D-04
   88   -2.33032D-04  2.54382D-06 -5.08411D-04  2.25678D-03  4.11163D-07  3.83051D-04  2.14098D-03 -2.00545D-06  6.16324D-04 -9.79722D-04
   89   -4.05044D-02 -1.97008D-05 -1.91251D-03  4.46600D-02  2.38230D-05  2.16502D-03 -5.09282D-02  1.21665D-06 -2.79087D-03  6.47376D-02
   90   -7.28849D-04 -4.48218D-04 -1.23321D-05  2.82631D-04 -3.82836D-04  3.76964D-05 -8.81781D-04  5.80699D-04 -4.21575D-05  9.59265D-04
   91   -1.28211D-03 -2.62499D-06 -1.74572D-04 -3.75307D-03 -1.07553D-06  7.04403D-04 -6.66436D-03  2.46190D-06  4.90104D-04  1.26148D-04
   92    3.23012D-02  1.47548D-05  1.54375D-03 -3.55193D-02 -3.25783D-05 -1.83684D-03  4.19700D-02  1.68896D-05  2.22285D-03 -5.22893D-02
   93    8.56081D-04 -4.15977D-04 -1.01501D-04  2.36093D-03 -3.43923D-04 -2.06646D-04  4.81099D-03  3.91139D-04  1.58952D-05 -3.04821D-04
   94   -6.29662D-03 -8.82896D-07 -1.45906D-04  8.91695D-03  7.02486D-06 -5.10480D-04  4.93937D-03  2.87160D-06 -4.60623D-04  3.19946D-03
   95   -3.16304D-02 -3.66320D-06 -1.35897D-03  3.11835D-02  2.11572D-05  1.59729D-03 -3.64347D-02 -9.75723D-07 -1.87117D-03  4.39050D-02
   96    1.60734D-03  2.89593D-04  1.85267D-04 -4.30094D-03  2.87109D-04  2.07765D-04 -4.81966D-03 -4.16607D-04  5.65822D-05 -1.38818D-03
   97    5.12713D-03  2.12699D-07  4.63947D-04 -4.34780D-03 -3.98334D-06 -3.53378D-04 -1.45529D-04 -5.08264D-06 -3.67626D-04 -2.65104D-03
   98   -2.63400D-01 -2.25146D-04 -2.74526D-03  6.29473D-02  1.59322D-04  1.15851D-02 -2.70252D-01  9.75559D-05 -7.94508D-03  1.79736D-01
   99   -6.08139D-03  4.03930D-04 -9.39045D-05  2.16878D-03  3.18051D-04  1.84447D-04 -4.31238D-03 -4.33149D-04 -1.30849D-04  2.98812D-03
  100   -1.96911D-02 -1.28542D-05 -6.46182D-04  1.04758D-02  8.87309D-06  6.56017D-04 -9.74126D-03  1.14710D-05 -1.23769D-04  9.35252D-03
  101   -2.19994D-02 -7.70823D-06 -9.19967D-04  2.10942D-02  4.27374D-06  9.27170D-04 -2.17954D-02  1.05745D-05 -1.21129D-03  2.83799D-02
  102    4.59162D-03 -2.12955D-04  1.40150D-04 -3.24644D-03 -1.68704D-04 -3.51063D-05  8.27701D-04  2.58829D-04  8.08144D-05 -1.87189D-03
  103    7.10905D-03  2.06233D-06 -6.37044D-05 -5.99905D-03 -6.55456D-06  4.79209D-04 -4.94149D-04 -4.37507D-06  4.41001D-04 -2.43423D-03
  104    1.96625D-02  7.00481D-06  7.46229D-04 -1.70248D-02 -4.43678D-06 -6.31575D-04  1.43738D-02 -1.59864D-05  8.64357D-04 -2.05815D-02
  105   -7.43369D-03 -3.38495D-04 -8.01989D-05  1.85764D-03 -2.60750D-04  2.78837D-04 -6.51035D-03  3.79601D-04 -1.49905D-04  3.39071D-03
  106   -2.05335D-02 -1.61949D-05 -3.03070D-04  9.94677D-03  1.18450D-05  3.39056D-04 -1.18505D-02  6.58672D-06 -6.00543D-04  1.00617D-02
  107   -1.73569D-02 -3.74638D-05 -4.81113D-04  1.12537D-02 -2.74796D-05  3.31504D-04 -7.70567D-03  2.12810D-05 -5.97139D-04  1.39280D-02
  108    9.56172D-03  1.35567D-04  3.40811D-06 -6.13353D-05  1.29172D-04 -5.24450D-04  1.22272D-02 -1.89993D-04  1.65778D-04 -3.67771D-03
  109    1.52554D-02  1.33126D-05  4.94193D-04 -5.61644D-03 -6.02259D-06 -8.48511D-04  1.15105D-02 -1.05530D-06 -4.15692D-05 -6.78568D-03
  110    9.11429D-03  1.70798D-05  2.28390D-04 -5.61421D-03  3.43366D-06 -5.20512D-04  1.23640D-02 -8.27732D-06  4.17950D-04 -8.82763D-03
  111   -3.09756D-03  2.99136D-04 -3.24743D-05  7.47048D-04  2.50282D-04  1.25427D-04 -2.92051D-03 -3.49199D-04 -4.81343D-05  1.07919D-03
  112    2.59461D-02  2.39307D-05 -4.65150D-04 -2.84038D-03 -5.42739D-06 -3.23593D-04  2.67646D-02  4.88375D-06  1.01515D-03 -5.23845D-03
  113   -3.27225D-01 -1.93929D-04 -8.86367D-03  2.05226D-01  2.29509D-04  4.34881D-03 -1.03247D-01  1.05095D-04 -6.76524D-03  1.56357D-01
  114   -5.00579D-03 -6.99882D-04  4.60278D-07 -2.48733D-05 -5.67256D-04  2.56675D-04 -6.00478D-03  7.96615D-04 -4.14581D-05  8.81390D-04


              21           22           23           24           25           26           27           28           29           30
   ----- ----- ----- ----- -----
   21    7.07971D+00
   22   -2.78760D-04  7.33134D+00
   23    6.24468D-03 -4.03734D+00  1.01289D+02
   24   -4.90506D+00  1.97284D-03 -4.58852D-02  7.16297D+00
   25   -1.49393D-04 -4.93167D+00  2.00875D+00 -1.36483D-03  7.46024D+00
   26    3.29957D-03  2.00946D+00 -5.25117D+01  3.12039D-02 -3.94897D+00  1.01218D+02
   27    1.52954D+00 -1.29820D-03  3.03764D-02 -4.84687D+00  3.20763D-03 -7.55800D-02  7.29924D+00
   28    7.73826D-05  1.58339D+00  6.37619D-01 -4.09962D-04 -5.16328D+00  1.11875D+00 -1.21207D-03  7.58030D+00
   29   -1.39085D-03  5.99393D-01 -1.26967D+01  9.87219D-03  1.13087D+00 -3.26549D+01  2.82792D-02 -3.79123D+00  1.00632D+02
   30   -4.53076D-01 -7.39779D-04  1.80097D-02  1.60774D+00 -1.01997D-03  2.44999D-02 -5.11615D+00  4.87017D-03 -1.19380D-01  7.43191D+00
   31   -1.91224D-05 -6.48110D-01 -3.26688D-01  2.12007D-04  1.67845D+00  6.33552D-01 -6.21169D-04 -5.16304D+00  1.81264D+00 -2.63297D-03
   32    8.51928D-04 -3.39444D-01  7.42187D+00 -5.16413D-03  5.99200D-01 -1.29430D+01  1.50684D-02  1.82059D+00 -5.10756D+01  6.52457D-02
   33    4.51174D-01  4.23484D-04 -1.02955D-02 -6.62334D-01 -9.12562D-04  2.26439D-02  1.70203D+00 -2.52637D-03  6.34634D-02 -5.09113D+00
   34    7.10012D-06  4.80743D-01  1.54271D-01 -1.02225D-04 -5.50246D-01 -3.02733D-01  3.14220D-04  1.74912D+00  6.19369D-01 -8.19290D-04
   35   -4.26087D-04  2.07899D-01 -4.47229D+00  3.12213D-03 -3.16827D-01  7.16067D+00 -7.53011D-03  5.86257D-01 -1.31703D+01  2.07068D-02
   36   -2.69333D-01 -2.31660D-04  5.72976D-03  4.89212D-01  5.34422D-04 -1.33819D-02 -5.64544D-01 -1.15752D-03  2.97578D-02  1.77188D+00
   37   -6.01630D-06 -2.69087D-01 -1.42629D-01  8.49383D-05  5.03577D-01  1.76484D-01 -1.43540D-04 -7.47150D-01 -3.03896D-01  4.10937D-04
   38    1.67123D-04 -1.46858D-01  3.22040D+00 -1.94868D-03  2.09267D-01 -4.59804D+00  4.82340D-03 -3.35050D-01  7.74466D+00 -1.13877D-02
   39    1.32880D-01  3.22975D-04 -7.71913D-03 -2.74913D-01 -3.66108D-04  8.96714D-03  5.11897D-01  5.70123D-04 -1.48981D-02 -7.59915D-01
   40    4.24010D-06  1.34814D-01  8.90681D-02 -5.12674D-05 -2.97971D-01 -1.12493D-01  8.67927D-05  5.36827D-01  1.48058D-01 -1.95643D-04
   41   -1.58158D-04  1.06314D-01 -2.38554D+00  1.30154D-03 -1.41592D-01  3.14765D+00 -3.08131D-03  2.06327D-01 -4.70148D+00  6.87587D-03
   42   -6.63937D-02 -1.97633D-04  4.67440D-03  1.37681D-01  2.39165D-04 -6.14151D-03 -3.02298D-01 -2.74781D-04  7.27880D-03  5.44035D-01
   43   -5.15266D-06 -7.16910D-02 -5.55885D-02  3.83648D-05  1.46836D-01  7.93254D-02 -6.49459D-05 -3.00589D-01 -1.10533D-01  1.40359D-04
   44    1.32075D-04 -8.31988D-02  1.90216D+00 -1.01653D-03  1.09052D-01 -2.49042D+00  2.18505D-03 -1.47136D-01  3.41118D+00 -4.59834D-03
   45    3.99979D-02  1.35153D-04 -3.13005D-03 -7.38404D-02 -1.98456D-04  4.83499D-03  1.49739D-01  2.49184D-04 -6.44062D-03 -3.04804D-01
   46   -8.72616D-07  4.29775D-02  4.93442D-02 -3.43416D-05 -7.30220D-02 -5.05900D-02  4.34043D-05  1.52030D-01  7.17777D-02 -9.97732D-05
   47   -9.96917D-05  6.17360D-02 -1.42492D+00  7.90692D-04 -8.23793D-02  1.91963D+00 -1.72329D-03  1.08064D-01 -2.55948D+00  3.33506D-03
   48   -2.43301D-02 -1.20654D-04  2.78570D-03  4.54096D-02  1.22159D-04 -2.72003D-03 -7.50442D-02 -1.36440D-04  3.60444D-03  1.54070D-01
   49    2.98659D-06 -2.27884D-02 -1.93867D-02  1.32889D-05  4.39727D-02  3.26349D-02 -3.79512D-05 -8.12000D-02 -3.33304D-02  4.48983D-05
   50    7.59094D-05 -4.83307D-02  1.12560D+00 -6.02779D-04  6.31453D-02 -1.49045D+00  1.29125D-03 -8.46133D-02  2.04462D+00 -2.56580D-03
   51    9.86365D-03  2.68378D-05 -6.70319D-04 -2.36723D-02 -5.63729D-05  1.26831D-03  4.52804D-02  3.97436D-05 -8.89824D-04 -8.23700D-02
   52   -3.15583D-06  8.09218D-03  1.67504D-02 -1.48912D-05 -2.62622D-02 -2.04866D-02  1.70388D-05  4.82438D-02  2.51582D-02 -3.95617D-05
   53   -4.18116D-05  3.75080D-02 -8.81767D-01  4.52469D-04 -4.88104D-02  1.16154D+00 -9.89007D-04  6.34084D-02 -1.55207D+00  1.93016D-03
   54   -3.41737D-03  6.70417D-07  5.15531D-05  8.52223D-03  2.01954D-05 -4.98456D-04 -2.70248D-02 -1.23661D-05  1.88889D-04  4.92785D-02
   55   -1.60580D-06 -5.55844D-03 -7.46042D-03  6.97640D-06  1.05737D-02  8.39763D-03 -8.28114D-06 -2.56024D-02 -7.45255D-03  1.17900D-05
   56    3.29724D-05 -2.94564D-02  6.95459D-01 -3.21830D-04  3.76818D-02 -9.03201D-01  7.75755D-04 -5.00389D-02  1.23610D+00 -1.52092D-03
   57    4.42440D-03 -7.74172D-06  1.80571D-04 -5.83590D-03  2.07140D-05 -5.15972D-04  1.09029D-02 -2.49329D-05  6.15700D-04 -2.59003D-02
   58    1.81228D-06  6.02989D-03 -2.76390D-03 -1.82406D-06 -3.93479D-03 -3.24367D-03  5.61643D-06  1.03376D-02 -2.12585D-03  4.69968D-06
   59   -2.85499D-05  2.40371D-02 -5.68762D-01  2.73587D-04 -2.98686D-02  7.19376D-01 -5.96656D-04  3.86844D-02 -9.63329D-01  1.17266D-03
   60   -3.73760D-03  6.51322D-05 -1.55951D-03  5.98812D-03 -3.47850D-05  8.29784D-04 -3.93323D-03  7.33456D-05 -1.88651D-03  1.01614D-02
   61   -3.28480D-06 -1.94403D-03 -1.08781D-03  2.42148D-06  5.23587D-03 -3.53285D-03  5.63397D-06 -6.47924D-03 -1.05551D-03  2.38459D-06
   62    4.86788D-05 -1.88140D-02  4.44421D-01 -2.00073D-04  2.39917D-02 -5.80892D-01  4.55315D-04 -3.05323D-02  7.62273D-01 -8.69076D-04
   63   -7.70755D-05 -2.84468D-05  6.88978D-04 -2.06204D-03  6.28548D-05 -1.50477D-03  5.07354D-03 -2.91297D-05  7.12597D-04 -6.40513D-03
   64    3.06886D-06 -4.88589D-04 -7.28771D-03  2.38998D-06 -4.27628D-03  5.87131D-03 -4.29240D-06  6.17654D-03 -7.52040D-03  1.00423D-05
   65   -1.87873D-05  1.56318D-02 -3.69591D-01  1.80598D-04 -1.94703D-02  4.71089D-01 -3.79753D-04  2.46452D-02 -6.18565D-01  7.06033D-04
   66    9.53297D-04  6.54415D-05 -1.56125D-03 -8.69217D-04 -6.58287D-05  1.54436D-03 -3.90794D-03  5.13115D-05 -1.32573D-03  5.92626D-03
   67    2.04748D-06 -8.56490D-04  4.26782D-03 -7.55687D-07  6.82654D-05 -5.14867D-03  4.79898D-06 -2.44872D-03  7.00977D-03 -8.70888D-06
   68    1.30315D-05 -1.24877D-02  2.96462D-01 -1.45028D-04  1.60386D-02 -3.87649D-01  3.36258D-04 -1.95353D-02  4.88870D-01 -5.58971D-04
   69    1.13079D-03 -5.22691D-05  1.26240D-03 -6.98071D-04  5.81630D-05 -1.39494D-03 -1.05798D-04 -6.36641D-05  1.60658D-03 -2.22447D-03
   70    2.49904D-06  1.58121D-03 -8.00501D-04  6.52629D-06  4.29070D-04  1.43281D-02 -1.47755D-05 -3.86579D-04 -2.78782D-04 -1.33939D-06
   71   -1.92240D-05  1.02133D-02 -2.43278D-01  1.27450D-04 -1.29552D-02  3.13953D-01 -2.75516D-04  1.60595D-02 -4.01656D-01  4.41474D-04
   72   -1.07450D-03  2.37829D-06 -1.27718D-04  1.53182D-03 -1.17283D-04  2.90236D-03  9.84501D-04 -3.12355D-06  1.05041D-04 -6.72393D-04
   73    6.99724D-06 -2.43445D-04  8.85905D-03  2.17180D-06  1.21576D-03  2.98582D-03 -4.28706D-06 -1.34286D-03  1.52183D-02 -1.91075D-05
   74    1.32862D-05 -8.61016D-03  2.03838D-01 -1.09880D-04  1.07178D-02 -2.61207D-01  2.21293D-04 -1.29694D-02  3.26066D-01 -3.62754D-04
   75   -6.34625D-04 -8.67566D-05  1.97070D-03  2.37779D-05 -3.01312D-05  7.65830D-04  1.51853D-03 -8.04207D-05  2.09249D-03 -8.33290D-04
   76   -4.28692D-06 -8.58908D-04  5.42180D-04 -4.80834D-06 -1.44974D-03  2.29026D-03 -5.37306D-06  1.59824D-03 -4.67764D-03  1.97839D-06
   77   -1.21320D-05  6.75932D-03 -1.59453D-01  8.00893D-05 -8.62293D-03  2.10068D-01 -1.71831D-04  1.03134D-02 -2.59470D-01  2.80728D-04
   78    7.27647D-04  1.17736D-05 -2.38677D-04 -9.54968D-04  8.25333D-06 -2.11922D-04 -1.35237D-03  5.12661D-05 -1.23807D-03  1.62729D-03
   79    9.96478D-07 -6.57304D-04  5.21041D-03 -2.31883D-06 -5.77647D-04 -5.49615D-03  5.32023D-06 -1.58901D-04  7.48315D-03 -1.12049D-05
   80    5.00838D-06 -5.85289D-03  1.39763D-01 -6.94104D-05  7.29967D-03 -1.75709D-01  1.47643D-04 -8.84630D-03  2.21669D-01 -2.47393D-04
   81    6.08171D-04  1.13965D-05 -1.44904D-04 -4.27876D-04  1.34445D-04 -3.26156D-03 -8.18652D-04  2.48082D-06 -6.52654D-05  1.99625D-04
   82   -1.26835D-05  8.11958D-04 -1.54500D-03 -1.42817D-05  1.36403D-03 -1.21656D-02  1.10736D-05 -2.26819D-04 -1.04492D-02  9.43003D-06
   83    6.31283D-06  4.48148D-03 -1.07500D-01  4.44612D-05 -5.92046D-03  1.43028D-01 -1.24558D-04  6.76288D-03 -1.68700D-01  1.89432D-04
   84   -6.63708D-04  3.23720D-05 -7.46442D-04  8.17897D-04  1.31779D-05 -3.34226D-04  7.99937D-04  3.02349D-05 -7.65946D-04 -7.73863D-04
   85   -3.60270D-06  4.97982D-04 -1.37593D-03 -5.98444D-06  1.36509D-03 -1.37819D-02  1.79817D-05 -3.79721D-04 -9.16572D-04  1.08533D-06
   86   -1.01623D-05 -4.04596D-03  9.58572D-02 -4.04399D-05  4.89308D-03 -1.19488D-01  1.04252D-04 -5.86583D-03  1.48865D-01 -1.68684D-04
   87   -5.77053D-04 -3.49252D-05  7.61077D-04  3.88540D-04 -4.63377D-05  1.14478D-03  8.13902D-04 -1.51135D-05  3.87499D-04 -4.00714D-04
   88    1.33431D-06 -6.07690D-04  9.55684D-04 -4.05852D-06 -7.43847D-04  1.37369D-03 -7.20211D-06  8.84660D-04 -4.36632D-03  5.78031D-06
   89    2.40907D-05  3.14097D-03 -7.43579D-02  2.53981D-05 -3.99903D-03  9.75944D-02 -8.96187D-05  4.35120D-03 -1.11043D-01  1.34234D-04
   90    4.63606D-04  4.14567D-05 -1.00857D-03 -5.95540D-04 -2.59370D-05  5.87540D-04 -7.41252D-04 -5.74457D-06  4.90101D-05  7.68754D-04
   91    5.52175D-07 -4.99186D-04  7.13689D-04  5.87634D-06 -8.60953D-04  4.42935D-03  4.39278D-06  2.59461D-04  4.22263D-03 -5.95573D-06
   92   -1.64727D-05 -2.58341D-03  6.21496D-02 -3.91517D-05  3.28486D-03 -7.87634D-02  7.62441D-05 -3.72606D-03  9.40307D-02 -1.15546D-04
   93    5.47016D-04  8.89900D-05 -1.88819D-03 -4.41605D-04  2.02333D-04 -4.94151D-03 -7.27884D-04  6.28604D-05 -1.61795D-03  3.88410D-04
   94   -4.58217D-06  4.72158D-04 -3.41570D-03 -1.14597D-06  6.30867D-04 -3.41298D-03 -2.09280D-06 -3.06673D-04 -3.06537D-03  6.56247D-06
   95    1.96106D-05  2.07083D-03 -5.04947D-02  2.62515D-05 -2.66340D-03  6.43724D-02 -5.64845D-05  2.85705D-03 -7.24740D-02  6.85985D-05
   96   -3.18824D-04 -1.01022D-04  2.17848D-03  3.80717D-04 -2.10840D-04  5.12948D-03  5.33424D-04  8.74520D-06 -1.56867D-04 -5.08630D-04
   97    2.41762D-06  5.23449D-04 -8.79263D-04  7.35460D-07  6.53396D-04 -1.33304D-03  7.07667D-06 -4.56360D-04 -4.40272D-04  5.64613D-07
   98    1.58929D-04  4.89705D-03 -1.29426D-01  3.39063D-04 -9.92703D-03  2.33386D-01 -1.37343D-04 -5.29295D-03  1.15355D-01 -3.30143D-05
   99   -3.85667D-04 -3.99989D-05  7.35784D-04  4.27712D-04 -1.80195D-04  4.42810D-03  6.20427D-04 -9.60019D-05  2.34971D-03 -5.04556D-04
  100    7.75883D-06 -1.99996D-04 -1.99708D-03  7.38569D-06 -8.02540D-04  1.05004D-02 -1.85863D-05  2.47268D-04  1.04862D-03  3.53966D-06
  101    5.24108D-06  1.19600D-03 -2.90441D-02  2.71857D-05 -1.54621D-03  3.85435D-02 -6.82468D-05  1.65817D-03 -4.33589D-02  7.57550D-05
  102    2.60389D-04 -3.11515D-05  7.96765D-04 -3.31389D-04  3.79411D-05 -9.31411D-04 -2.88886D-04 -6.32181D-06  2.77841D-04  3.32161D-04
  103    4.24971D-06 -3.87964D-04  9.69563D-05 -5.58974D-08 -5.01484D-04 -4.47984D-04 -7.37450D-07  3.99785D-04  5.34460D-04 -1.51878D-06
  104    3.61113D-06 -7.03190D-04  1.77765D-02 -1.29671D-05  1.07715D-03 -2.60470D-02  1.28491D-05 -9.98033D-04  2.56793D-02 -2.71772D-05
  105    3.79386D-04 -7.09151D-05  1.37384D-03 -3.93989D-04 -2.73527D-04  6.70443D-03 -4.94374D-04 -1.15485D-04  2.81017D-03  3.87015D-04
  106    1.06556D-06  3.06862D-04 -3.80286D-03  1.49589D-05 -2.59214D-04  1.14840D-02 -3.78180D-06 -2.03981D-04 -2.83709D-04  4.25921D-06
  107    2.38504D-05  1.42070D-04 -3.82252D-03  1.59340D-07 -5.74178D-04  1.33147D-02  2.92420D-05  2.82634D-04 -6.12619D-03 -2.38566D-05
  108   -1.48458D-04  1.40531D-04 -2.74673D-03  1.67825D-04  5.19512D-04 -1.27024D-02  2.36962D-04  1.04537D-04 -2.50730D-03 -2.13101D-04
  109   -9.45933D-06  3.53745D-04  8.82145D-04 -8.42486D-06  9.47742D-04 -1.14797D-02  7.28848D-06 -3.26654D-04 -1.08169D-03  1.07930D-06
  110   -1.32842D-05 -4.83649D-04  1.06391D-02  9.32179D-06  5.04167D-04 -1.19526D-02 -2.55128D-05 -3.33795D-04  8.24668D-03  1.29498D-05
  111   -3.25028D-04 -1.43198D-05  2.03142D-04  3.60235D-04 -1.24684D-04  3.03269D-03  4.55227D-04  4.11735D-07 -6.89817D-05 -3.59446D-04
  112   -5.64488D-06 -3.89563D-04 -9.08467D-03 -2.97712D-05  1.07413D-04 -2.94317D-02  6.87725D-06  9.52919D-04 -1.43430D-03  5.60395D-06
  113    4.36253D-05 -3.85636D-04  3.52255D-03  1.13876D-04 -4.38601D-03  1.11013D-01 -2.59994D-04 -4.42276D-03  1.02472D-01 -2.59245D-05
  114    7.77992D-04 -1.11101D-04  2.27091D-03 -8.21267D-04 -2.66045D-04  6.62424D-03 -1.10542D-03 -1.39181D-05  3.20612D-04  8.86610D-04


              31           32           33           34           35           36           37           38           39           40
   ----- ----- ----- ----- -----
   31    7.67603D+00
   32   -3.64001D+00  1.00588D+02
   33    5.56683D-03 -1.41995D-01  7.53826D+00
   34   -5.34990D+00  1.03896D+00 -1.73455D-03  7.76253D+00
   35    1.03209D+00 -3.27962D+01  4.46283D-02 -3.38312D+00  1.00237D+02
   36   -1.60295D-03  4.25779D-02 -5.31076D+00  6.09350D-03 -1.66631D-01  7.64477D+00
   37    1.82667D+00  5.99414D-01 -9.46431D-04 -5.33522D+00  1.58174D+00 -2.98758D-03  7.83109D+00
   38    5.67937D-01 -1.33450D+01  2.43788D-02  1.57160D+00 -5.01847D+01  8.33675D-02 -3.15762D+00  1.00219D+02
   39   -1.21272D-03  3.28100D-02  1.84769D+00 -2.90955D-03  8.33437D-02 -5.28132D+00  5.88790D-03 -1.71980D-01  7.72830D+00
   40   -6.44107D-01 -2.75871D-01  4.37452D-04  1.88216D+00  5.55588D-01 -9.76578D-04 -5.49186D+00  8.83150D-01 -1.56034D-03  7.89067D+00
   41   -3.03909D-01  7.44077D+00 -1.26201D-02  5.31382D-01 -1.34776D+01  2.70568D-02  8.72846D-01 -3.29001D+01  4.83769D-02 -2.78349D+00
   42    5.54778D-04 -1.50612D-02 -6.55662D-01 -1.18449D-03  3.42466D-02  1.90035D+00 -1.51237D-03  4.82726D-02 -5.46487D+00  5.04925D-03
   43    5.55110D-01  1.48447D-01 -2.13699D-04 -8.25555D-01 -2.45477D-01  4.26541D-04  1.94288D+00  4.99719D-01 -8.80279D-04 -5.45936D+00
   44    2.00608D-01 -4.78511D+00  8.09978D-03 -3.06031D-01  7.94951D+00 -1.52407D-02  4.93158D-01 -1.35996D+01  2.73496D-02  1.24292D+00
   45   -3.09052D-04  8.39403D-03  5.61388D-01  4.66213D-04 -1.40748D-02 -8.34659D-01 -9.91801D-04  3.15836D-02  1.95768D+00 -2.27217D-03
   46   -3.24544D-01 -9.77164D-02  1.25948D-04  5.80561D-01  1.05588D-01 -1.77946D-04 -7.15704D-01 -2.23404D-01  4.00430D-04  1.98332D+00
   47   -1.37108D-01  3.30300D+00 -5.30615D-03  1.88859D-01 -4.84054D+00  9.14504D-03 -2.66250D-01  7.61710D+00 -1.43746D-02  4.33028D-01
   48    1.93648D-04 -5.48506D-03 -3.28270D-01 -1.57416D-04  5.00228D-03  5.85187D-01  3.93141D-04 -1.27511D-02 -7.23114D-01 -7.32299D-04
   49    1.61296D-01  4.85910D-02 -6.81849D-05 -3.24365D-01 -7.41028D-02  1.28605D-04  5.94392D-01  9.58082D-02 -1.61160D-04 -8.82563D-01
   50    1.06406D-01 -2.62471D+00  4.00234D-03 -1.35539D-01  3.51448D+00 -6.33438D-03  1.75373D-01 -4.88978D+00  9.17565D-03 -2.51139D-01
   51   -6.49138D-05  1.84131D-03  1.62956D-01  1.07678D-04 -3.15172D-03 -3.27029D-01 -1.13184D-04  3.82182D-03  5.97964D-01  2.40956D-04
   52   -8.10836D-02 -3.14695D-02  5.05566D-05  1.65378D-01  3.64419D-02 -5.92861D-05 -3.44809D-01 -5.19584D-02  7.47364D-05  6.11416D-01
   53   -8.10970D-02  2.04326D+00 -3.05854D-03  1.01085D-01 -2.66955D+00  4.71403D-03 -1.21358D-01  3.39731D+00 -6.27845D-03  1.55587D-01
   54    1.04790D-05 -1.00413D-04 -8.19098D-02 -9.85054D-06  4.19922D-04  1.65774D-01  3.82930D-06 -5.13121D-04 -3.46054D-01  9.25938D-06
   55    4.88201D-02  1.44281D-02 -2.36776D-05 -8.80312D-02 -1.29090D-02  2.07725D-05  1.71506D-01  1.87394D-02 -2.83590D-05 -3.40826D-01
   56    6.22003D-02 -1.59282D+00  2.31131D-03 -7.95751D-02  2.15099D+00 -3.69072D-03  9.53808D-02 -2.71771D+00  4.85834D-03 -1.13292D-01
   57    2.17169D-05 -6.51523D-04  4.92806D-02 -5.56578D-05  1.57536D-03 -8.82654D-02  5.05211D-05 -1.43233D-03  1.71844D-01 -6.83814D-05
   58   -2.90388D-02  1.14100D-03 -6.50770D-08  5.17137D-02  2.56647D-03 -5.27506D-06 -8.71124D-02  1.36926D-03 -2.14367D-06  1.74115D-01
   59   -4.80055D-02  1.24052D+00 -1.78155D-03  5.94187D-02 -1.63137D+00  2.72997D-03 -7.25839D-02  2.11797D+00 -3.66252D-03  8.51170D-02
   60   -8.43307D-05  2.16620D-03 -2.91050D-02  7.66522D-05 -2.33091D-03  5.16886D-02 -1.17144D-04  3.60642D-03 -8.64479D-02  9.27841D-05
   61    1.16183D-02 -1.95328D-03  3.10649D-06 -2.75046D-02  4.39268D-03 -8.42425D-06  5.21662D-02 -3.48229D-03  1.29185D-05 -9.24500D-02
   62    3.71502D-02 -9.66244D-01  1.37385D-03 -4.69217D-02  1.29954D+00 -2.13797D-03  5.54587D-02 -1.65052D+00  2.73392D-03 -6.68740D-02
   63    6.47598D-05 -1.84692D-03  1.15953D-02 -7.47183D-05  2.02007D-03 -2.74271D-02  8.34142D-05 -2.64146D-03  5.18391D-02 -1.40926D-04
   64   -4.76761D-03  1.04075D-02 -1.16966D-05  1.18086D-02 -1.09411D-02  1.90627D-05 -3.07927D-02  1.55881D-02 -3.42719D-05  5.33253D-02
   65   -2.95489D-02  7.72290D-01 -1.08290D-03  3.60336D-02 -1.00603D+00  1.64290D-03 -4.25715D-02  1.28186D+00 -2.09455D-03  4.96939D-02
   66   -9.26494D-05  2.53330D-03 -4.51950D-03  8.82879D-05 -2.50365D-03  1.13786D-02 -1.07313D-04  3.26457D-03 -3.02117D-02  1.34042D-04
   67    5.88265D-03 -9.69276D-03  1.44938D-05 -7.22948D-03  1.05089D-02 -1.56085D-05  1.23937D-02 -1.58959D-02  2.90633D-05 -2.86536D-02
   68    2.36752D-02 -6.23219D-01  8.44581D-04 -2.85932D-02  7.99038D-01 -1.26454D-03  3.30562D-02 -1.00058D+00  1.62591D-03 -3.91578D-02
   69    8.78245D-05 -2.32122D-03  5.61989D-03 -7.21016D-05  2.08015D-03 -6.85547D-03  1.08307D-04 -3.38309D-03  1.17740D-02 -1.03628D-04
   70   -4.47273D-03  9.09705D-03 -2.03776D-05  6.03927D-03 -9.21710D-03  1.55524D-05 -4.89381D-03  9.83811D-03 -1.59947D-05  1.28591D-02
   71   -1.90473D-02  5.00118D-01 -6.41365D-04  2.29732D-02 -6.45134D-01  1.00355D-03 -2.61567D-02  7.93374D-01 -1.28729D-03  3.00737D-02
   72   -5.50037D-05  1.57149D-03 -3.96382D-03  4.86657D-05 -1.18345D-03  5.91949D-03 -3.77356D-05  1.49789D-03 -4.79224D-03  1.04573D-04
   73    1.62327D-04 -1.17849D-02  1.21080D-05 -2.78145D-03  1.68370D-02 -3.06261D-05  6.66151D-03 -2.29690D-02  4.07275D-05 -7.55512D-03
   74    1.58066D-02 -4.13414D-01  5.49818D-04 -1.82479D-02  5.10714D-01 -8.02177D-04  2.09516D-02 -6.42054D-01  1.01393D-03 -2.37849D-02
   75    8.25146D-05 -2.03102D-03 -3.97338D-04 -7.32045D-05  2.16045D-03 -2.09302D-03  1.08375D-04 -3.18186D-03  5.90423D-03 -8.06977D-05
   76    8.10127D-04  5.23292D-03 -6.31248D-06  3.18207D-04 -1.23933D-02  1.74486D-05 -4.59234D-03  1.20621D-02 -1.95672D-05  6.18577D-03
   77   -1.24407D-02  3.26942D-01 -4.45667D-04  1.48216D-02 -4.13735D-01  6.53062D-04 -1.64995D-02  5.05045D-01 -7.67824D-04  1.89376D-02
   78   -2.74438D-05  7.26791D-04  9.46607D-04  6.69202D-05 -1.88139D-03 -3.24423D-04 -6.82049D-05  1.90160D-03 -4.12401D-03  8.02602D-05
   79    1.92347D-03 -9.96590D-03  1.54739D-05 -1.10306D-03  9.38322D-03 -1.25888D-05 -5.41106D-05 -1.53147D-02  2.32220D-05 -2.55871D-03
   80    1.03993D-02 -2.74526D-01  3.55719D-04 -1.20000D-02  3.37760D-01 -5.29077D-04  1.38665D-02 -4.20335D-01  6.50865D-04 -1.50314D-02
   81    3.14338D-05 -9.70225D-04  1.55459D-03 -1.39596D-05  3.71742D-04 -6.72589D-04  1.65435D-05 -7.08382D-04 -6.55221D-04 -2.44003D-05
   82   -1.48717D-03  3.01801D-03 -1.42594D-06  1.72451D-03 -1.42816D-02  2.42791D-05  4.02348D-04  1.46880D-02 -2.27250D-05  5.88346D-04
   83   -8.17382D-03  2.16753D-01 -2.77007D-04  9.33486D-03 -2.62709D-01  3.99521D-04 -1.06739D-02  3.25645D-01 -4.90534D-04  1.20834D-02
   84   -2.99388D-05  7.04451D-04 -1.30619D-03  2.10785D-05 -6.57169D-04  1.48005D-03 -3.56632D-05  1.07877D-03  7.93470D-04  2.36286D-05
   85   -7.90110D-04 -5.67902D-03  1.10406D-05 -3.70649D-06  3.03036D-03 -1.10446D-05  1.85570D-03 -5.64038D-03  1.35679D-05 -1.03838D-03
   86    6.96637D-03 -1.82018D-01  2.22649D-04 -7.87932D-03  2.22570D-01 -3.53705D-04  8.88412D-03 -2.73479D-01  4.30696D-04 -9.55110D-03
   87    1.53153D-05 -3.15483D-04 -9.95297D-04 -3.22424D-05  8.95779D-04  2.13261D-04  1.66236D-05 -3.73054D-04  1.70115D-03 -5.13663D-05
   88    6.43242D-04  3.07106D-03 -2.92209D-06 -3.98092D-04 -4.66210D-03  1.53793D-05 -1.56275D-03  8.90423D-03 -2.00763D-05  1.25497D-03
   89   -5.46462D-03  1.43675D-01 -1.84786D-04  5.93759D-03 -1.65886D-01  2.63682D-04 -6.79566D-03  2.10035D-01 -3.22534D-04  7.33160D-03
   90   -3.06436D-05  8.07330D-04  8.18737D-04 -1.10350D-05  2.47608D-04 -7.22606D-04  1.56231D-07  7.05674D-05 -1.17482D-03 -1.81248D-06
   91    9.97331D-04 -1.85877D-03 -3.93440D-07 -7.55836D-04  8.58454D-03 -2.31472D-05 -8.99455D-04 -6.76801D-03  1.29058D-05 -2.44492D-04
   92    4.35394D-03 -1.15925D-01  1.58554D-04 -4.91007D-03  1.39771D-01 -2.32960D-04  5.65327D-03 -1.70613D-01  2.55996D-04 -5.95202D-03
   93   -2.56366D-05  3.99244D-04  9.44475D-04  3.91717D-05 -1.25462D-03 -3.32263D-04 -6.15628D-05  1.53357D-03 -1.18495D-03  4.01980D-05
   94   -7.54171D-04  3.95163D-03 -4.86781D-06  5.55045D-04 -2.09998D-03  1.31708D-05  5.31997D-04  6.44764D-03 -1.51383D-05 -3.54528D-04
   95   -3.47056D-03  9.20230D-02 -1.01332D-04  3.63229D-03 -1.04117D-01  1.76341D-04 -4.31428D-03  1.31817D-01 -2.05574D-04  4.40412D-03
   96    2.84463D-05 -6.25903D-04 -7.40185D-04  2.44329D-05 -7.26422D-04  6.70623D-04  1.04350D-05 -3.67685D-04  7.40298D-04 -2.57945D-05
   97   -7.93440D-04 -1.13974D-03  9.82030D-07  3.33090D-04  2.45696D-03 -1.95343D-05  1.17152D-03 -1.86511D-03  1.17964D-05 -6.61780D-04
   98   -4.61397D-03  1.31064D-01 -2.95072D-04 -1.01211D-02  2.79597D-01 -4.91455D-04  4.40200D-03 -9.22346D-02  1.29718D-04 -8.52040D-03
   99   -7.64402D-06  5.83014D-04 -7.21125D-04 -7.09557D-05  2.16532D-03  3.25621D-04  6.85553D-05 -1.41078D-03  1.00653D-03 -2.75900D-05
  100    3.02653D-04  4.90038D-03 -7.09528D-06 -4.14898D-04  1.73371D-03  1.61572D-05 -6.20190D-04  2.18191D-03 -1.78067D-05  3.80738D-04
  101   -2.00332D-03  5.29526D-02 -4.82329D-05  2.24165D-03 -6.39228D-02  9.71687D-05 -2.47020D-03  7.62269D-02 -9.70961D-05  2.59482D-03
  102    3.38285D-05 -9.53845D-04  4.78869D-04  1.11606D-05 -1.66772D-04 -4.65269D-04  1.77376D-05 -7.45165D-04 -4.60308D-04  1.16707D-05
  103    7.15014D-04 -9.95423D-04  3.67104D-06 -4.49188D-04  5.75861D-04 -2.23662D-06 -8.41714D-04 -1.92061D-03  2.99973D-06  3.66524D-04
  104    1.23824D-03 -3.45649D-02  4.71468D-05 -1.28358D-03  3.77978D-02 -5.61342D-05  1.59698D-03 -4.88436D-02  5.97246D-05 -1.61093D-03
  105   -2.57391D-06  5.65874D-04  7.28355D-04 -8.63388D-05  2.62341D-03 -4.65762D-04  8.60521D-05 -1.82196D-03 -8.30748D-04 -5.12614D-05
  106   -4.69422D-04  5.35094D-03 -1.45670D-05  1.92234D-04 -1.02580D-04 -4.63793D-06  3.29783D-04  1.74319D-03 -2.19642D-07 -2.34454D-04
  107   -4.58795D-04  1.18881D-02 -3.85434D-05  5.95103D-04 -1.60278D-02 -4.97586D-06 -5.30367D-04  1.60939D-02 -3.65924D-05  8.40921D-04
  108    6.93612D-06 -8.13898D-04 -2.65515D-04  7.49650D-05 -2.13061D-03  2.30097D-04 -8.55786D-05  1.72154D-03  3.35210D-04  8.48216D-05
  109   -5.32178D-04 -3.23550D-03  7.91555D-06  4.58494D-04 -1.83558D-03  1.19563D-05  8.26480D-04 -1.86097D-04 -3.72819D-06 -3.03905D-04
  110    5.95302D-04 -1.33900D-02  1.96287D-05 -3.46383D-04  7.21998D-03  1.89875D-05  4.81910D-04 -1.37092D-02  1.99310D-05 -3.48189D-04
  111   -1.72794D-05  5.39363D-04 -6.72580D-04 -5.16292D-06  6.45133D-05  3.36168D-04 -2.87315D-06  2.21765D-04  8.62293D-04 -2.02078D-05
  112    1.40585D-03  1.17492D-04  2.68792D-05 -7.64525D-04 -3.38711D-03  7.16537D-05 -2.00297D-03  9.63831D-04 -4.66076D-05  1.32632D-03
  113   -6.40240D-04  3.06765D-02 -1.38954D-05 -5.92522D-03  1.71418D-01 -3.12688D-04  3.02315D-03 -5.04303D-02  1.50534D-04 -4.88934D-03
  114    1.35116D-05 -1.10435D-04  1.41788D-03 -2.93736D-05  6.43510D-04 -8.93774D-04  2.23302D-05 -3.38732D-04 -1.89516D-03 -8.14862D-05


              41           42           43           44           45           46           47           48           49           50
   ----- ----- ----- ----- -----
   41    9.99874D+01
   42   -1.66699D-01  7.81095D+00
   43    1.27474D+00 -2.24904D-03  7.93426D+00
   44   -4.96110D+01  7.80588D-02 -2.48292D+00  9.99826D+01
   45    8.25917D-02 -5.42534D+00  4.10169D-03 -1.50817D-01  7.87149D+00
   46    4.27702D-01 -7.02098D-04 -5.59033D+00  6.80812D-01 -8.86215D-04  7.96938D+00
   47   -1.36718D+01  2.52040D-02  6.51851D-01 -3.29687D+01  3.62299D-02 -1.99011D+00  9.98338D+01
   48    2.58417D-02  1.99426D+00 -8.91965D-04  3.88562D-02 -5.57493D+00  2.45913D-03 -1.11967D-01  7.92982D+00
   49   -1.79758D-01  2.72726D-04  2.02438D+00  3.57214D-01 -4.84460D-04 -5.53781D+00  8.73656D-01 -8.96250D-04  7.99249D+00
   50    8.06712D+00 -1.43172D-02  3.74526D-01 -1.37468D+01  2.10154D-02  8.32075D-01 -4.92485D+01  4.69197D-02 -1.60629D+00  9.98386D+01
   51   -9.28343D-03 -8.87403D-01 -4.68714D-04  1.89951D-02  2.03179D+00 -9.18275D-04  5.17131D-02 -5.52244D+00  1.33708D-03 -7.36840D-02
   52    5.35607D-02 -6.60988D-05 -7.64587D-01 -1.35614D-01  1.76459D-04  2.04897D+00  2.59136D-01 -2.80306D-04 -5.64633D+00  4.24154D-01
   53   -4.92595D+00  8.68669D-03 -2.04369D-01  7.72547D+00 -1.12227D-02  2.93714D-01 -1.37877D+01  1.40385D-02  3.75194D-01 -3.30075D+01
   54    3.83312D-04  6.13690D-01  8.75853D-05 -3.95682D-03 -7.68257D-01 -1.73290D-04  6.91194D-03  2.05426D+00 -1.03795D-04  1.31800D-02
   55   -3.02744D-02  4.10898D-05  6.20003D-01  4.02080D-02 -3.13603D-05 -9.18015D-01 -9.00242D-02  6.79383D-05  2.07094D+00  1.70512D-01
   56    3.59270D+00 -6.17633D-03  1.35277D-01 -4.96421D+00  7.11116D-03 -1.72895D-01  8.14208D+00 -8.12628D-03  2.19040D-01 -1.38416D+01
   57    2.18823D-03 -3.41992D-01  7.87447D-05 -2.34771D-03  6.21638D-01 -3.39948D-05  1.00793D-03 -9.20235D-01  4.13991D-06 -3.11166D-03
   58    7.24351D-03 -8.03032D-06 -3.57299D-01 -7.46911D-04 -1.43407D-05  6.28444D-01  7.67231D-03  3.09796D-05 -7.89996D-01 -3.41897D-02
   59   -2.73012D+00  4.63302D-03 -9.46959D-02  3.44810D+00 -4.95834D-03  1.07671D-01 -4.97070D+00  4.86527D-03 -1.21539D-01  7.77382D+00
   60   -3.15023D-03  1.73943D-01 -1.45039D-04  5.43506D-03 -3.58260D-01  1.34064D-04 -5.07194D-03  6.29706D-01 -1.08537D-04  8.18088D-03
   61    1.23436D-02 -2.69364D-05  1.77028D-01 -1.24608D-02  2.16345D-05 -3.49133D-01  2.21628D-02 -4.13149D-05  6.31629D-01 -2.17874D-02
   62    2.20442D+00 -3.58301D-03  7.52607D-02 -2.76435D+00  3.94341D-03 -8.00545D-02  3.62427D+00 -3.65558D-03  8.13084D-02 -4.99290D+00
   63    4.69461D-03 -9.15886D-02  1.30482D-04 -5.13254D-03  1.76257D-01 -1.80517D-04  8.47805D-03 -3.49230D-01  1.84107D-04 -9.75682D-03
   64   -1.71610D-02  3.37083D-05 -8.96064D-02  2.54830D-02 -3.65846D-05  1.78490D-01 -2.58145D-02  3.56634D-05 -3.62410D-01  4.50618D-02
   65   -1.67189D+00  2.62978D-03 -5.68532D-02  2.14885D+00 -2.95954D-03  6.07645D-02 -2.75484D+00  2.88605D-03 -5.85463D-02  3.46212D+00
   66   -4.62377D-03  5.29838D-02 -1.44067D-04  5.82783D-03 -8.90056D-02  1.41293D-04 -6.94711D-03  1.77572D-01 -1.72794D-04  1.07097D-02
   67    1.87797D-02 -3.42474D-05  5.39361D-02 -2.65343D-02  3.80225D-05 -9.39806D-02  3.63938D-02 -4.59059D-05  1.78102D-01 -4.69795D-02
   68    1.32893D+00 -2.04662D-03  4.32689D-02 -1.67557D+00  2.18397D-03 -4.74833D-02  2.22123D+00 -2.19725D-03  4.74646D-02 -2.77262D+00
   69    3.40208D-03 -2.80208D-02  1.23324D-04 -5.18481D-03  5.33407D-02 -1.46067D-04  6.72706D-03 -9.31529D-02  1.34647D-04 -8.56158D-03
   70   -2.24463D-02  3.92454D-05 -3.11911D-02  2.29620D-02 -3.27315D-05  5.36029D-02 -4.24175D-02  4.88241D-05 -9.00008D-02  4.74161D-02
   71   -1.02636D+00  1.55990D-03 -3.30561D-02  1.29545D+00 -1.62183D-03  3.49016D-02 -1.67826D+00  1.53893D-03 -3.54786D-02  2.14868D+00
   72   -3.32397D-03  1.20013D-02 -8.21187D-05  3.35455D-03 -3.06120D-02  1.43054D-04 -6.85459D-03  5.30139D-02 -1.14131D-04  7.05132D-03
   73    1.96112D-02 -2.96526D-05  1.24751D-02 -3.25161D-02  4.52721D-05 -2.86460D-02  2.79026D-02 -2.79816D-05  5.41107D-02 -4.73450D-02
   74    8.10889D-01 -1.19297D-03  2.56955D-02 -1.01032D+00  1.21487D-03 -2.73568D-02  1.32561D+00 -1.15257D-03  2.64889D-02 -1.66817D+00
   75    2.92326D-03 -7.01147D-03  1.09615D-04 -4.32467D-03  1.15326D-02 -8.21390D-05  4.04536D-03 -2.80234D-02  9.56342D-05 -6.58313D-03
   76   -2.34137D-02  3.76595D-05 -5.27726D-03  2.28639D-02 -2.77977D-05  1.31808D-02 -3.87931D-02  3.88431D-05 -3.09386D-02  4.24198D-02
   77   -6.50650D-01  9.09094D-04 -2.01316D-02  7.91394D-01 -9.29211D-04  2.08855D-02 -1.01620D+00  8.56344D-04 -2.00694D-02  1.28055D+00
   78   -2.79512D-03  5.68557D-03 -7.77554D-05  3.00658D-03 -4.73944D-03  8.00174D-05 -4.22038D-03  1.20786D-02 -8.38850D-05  4.94363D-03
   79    1.30616D-02 -1.99860D-05  6.61967D-03 -2.17144D-02  2.08530D-05 -7.37526D-03  2.07192D-02 -2.41261D-05  1.14254D-02 -3.23428D-02
   80    5.13993D-01 -7.14891D-04  1.60647D-02 -6.40613D-01  7.30413D-04 -1.64900D-02  7.99988D-01 -6.60708D-04  1.56045D-02 -9.93934D-01
   81    7.01511D-04 -2.20543D-03  1.97459D-05 -1.18709D-03  6.18834D-03 -4.84705D-05  2.15509D-03 -6.88162D-03  2.31450D-05 -1.97148D-03
   82   -1.92717D-02  3.05414D-05 -4.72098D-03  2.35144D-02 -3.83284D-05  5.67016D-03 -2.51567D-02  2.79603D-05 -5.06276D-03  3.39026D-02
   83   -4.09187D-01  5.54236D-04 -1.24232D-02  4.94609D-01 -5.28428D-04  1.29410D-02 -6.32356D-01  4.94929D-04 -1.21234D-02  7.66617D-01
   84   -8.67640D-04 -1.78082D-04 -3.36301D-05  1.28285D-03 -4.01556D-03  2.56768D-05 -1.26970D-03  5.42324D-03 -2.23371D-05  1.60916D-03
   85    7.97435D-03 -6.36953D-06 -5.72283D-04 -1.07579D-02  7.46306D-07 -2.55240D-03  1.85703D-02 -2.40539D-05  6.54850D-03 -1.91828D-02
   86    3.28801D-01 -4.40937D-04  1.04412D-02 -4.08355D-01  4.12363D-04 -1.01343D-02  4.92232D-01 -3.54135D-04  9.40240D-03 -6.12596D-01
   87    1.95424D-03 -7.42008D-04  3.39297D-05 -8.63582D-04 -8.46327D-04 -3.09833D-05  2.26023D-03 -2.11987D-03  4.51325D-05 -2.00562D-03
   88   -4.26076D-03 -1.11913D-06  6.18659D-04  1.21513D-02 -4.83775D-06  3.78384D-04 -8.43197D-03  1.26857D-05 -4.04502D-03  1.53149D-02
   89   -2.51562D-01  3.19337D-04 -7.80719D-03  3.09075D-01 -2.92371D-04  8.05040D-03 -3.85160D-01  2.80588D-04 -7.17507D-03  4.63494D-01
   90   -4.76036D-05  1.20436D-03  9.39063D-06 -2.43931D-04  8.09242D-04 -4.18007D-06 -1.47968D-04 -3.04613D-05  3.71979D-06 -2.36471D-05
   91    1.45987D-02 -1.65576D-05  2.27406D-03 -1.26765D-02  2.48759D-05 -1.08485D-03  1.90144D-02 -1.35344D-05 -7.48111D-04 -2.14210D-02
   92    2.04627D-01 -2.53280D-04  6.26557D-03 -2.51330D-01  2.54106D-04 -6.11296D-03  2.98956D-01 -2.25112D-04  5.91356D-03 -3.71300D-01
   93   -1.68488D-03  1.93802D-04 -5.93568D-05  1.80375D-03  1.88521D-03 -4.62852D-06 -3.18322D-04 -7.16675D-04 -4.46815D-05  2.50659D-03
   94   -3.10856D-03 -1.84113D-06 -1.31753D-03  7.83339D-03 -7.40378D-06  1.03323D-03 -3.98818D-03  3.91771D-06  6.87829D-04  1.05126D-02
   95   -1.51279D-01  1.72333D-04 -4.67974D-03  1.89409D-01 -1.66904D-04  4.60587D-03 -2.25112D-01  1.62052D-04 -4.32196D-03  2.75046D-01
   96    7.33151D-04 -5.70621D-04  5.79083D-06 -1.63084D-04 -1.12578D-03 -4.05474D-06  1.73782D-04  1.03050D-03  2.45452D-05 -1.57910D-03
   97    6.73174D-03 -1.69295D-06 -1.25495D-03 -4.94715D-03 -3.64802D-06 -4.02817D-05  1.16983D-02 -1.60526D-05  2.36072D-03 -1.01548D-02
   98    3.23356D-01 -4.69477D-04  9.65551D-03 -2.94606D-01  5.01489D-04 -5.22796D-03  3.24198D-01 -2.05290D-04  8.18882D-03 -4.09413D-01
   99    1.40558D-03 -3.35447D-04  6.94696D-05 -1.79454D-03 -1.34070D-03  2.79536D-05 -6.26831D-04  1.86881D-04  3.17142D-05 -1.32918D-03
  100    1.13823D-03 -1.12347D-05  7.56538D-04  1.54291D-03  1.31180D-05 -3.13854D-04 -2.12318D-03  6.76415D-06 -1.08990D-03  2.63123D-03
  101   -9.10205D-02  5.93437D-05 -2.80473D-03  1.10852D-01 -3.47396D-05  2.57205D-03 -1.27859D-01  3.74838D-05 -2.42661D-03  1.58778D-01
  102   -3.03567D-04  3.54353D-04  2.00353D-08 -5.01767D-04  6.61890D-04  2.86863D-06 -2.42553D-04 -4.38229D-04 -6.43511D-06 -4.18907D-04
  103    1.29981D-03 -3.03298D-07  1.24834D-03 -2.52930D-03 -5.34852D-06 -4.86714D-04  2.52453D-03 -1.22955D-05 -1.45135D-03 -3.79111D-03
  104    5.56597D-02 -5.33738D-05  1.64157D-03 -7.02854D-02  6.96018D-05 -1.65758D-03  8.24225D-02 -5.16776D-05  1.59818D-03 -1.01653D-01
  105    2.26112D-03  3.52939D-04  9.31396D-05 -2.40488D-03  1.27933D-03  2.37406D-05 -2.72726D-04 -4.54868D-04  5.56690D-05 -2.45994D-03
  106   -1.37445D-03  3.27604D-06 -4.54736D-04  1.00006D-03  2.42429D-06  3.42028D-04 -4.30604D-03 -6.66659D-06  5.55206D-04  2.04236D-03
  107   -2.95654D-02  1.44913D-04 -7.46403D-04  2.90798D-02 -1.52078D-04  8.01763D-04 -4.30456D-02  1.03565D-04 -8.04064D-04  5.04345D-02
  108   -3.19216D-03 -2.93529D-04 -1.02412D-04  2.38101D-03 -4.75805D-04 -1.76693D-05  4.72555D-05  3.05766D-04 -8.51693D-05  3.76222D-03
  109   -2.76005D-03  2.61447D-06 -1.17637D-03  1.14588D-03 -1.44474D-05  3.28396D-04 -2.61399D-04  6.30604D-06  1.39310D-03  2.41305D-03
  110    8.34698D-03 -5.09899D-05  5.63334D-04 -1.52367D-02  3.94333D-05 -5.62790D-04  1.35391D-02 -3.01872D-05  3.64509D-04 -2.00983D-02
  111    6.43952D-04 -4.10794D-04  9.29850D-06  1.40974D-06 -1.10459D-03 -4.44264D-07  2.04637D-04  3.96134D-04  1.56515D-05 -5.65809D-04
  112   -1.27191D-02 -1.17240D-05  2.24401D-03  3.38226D-03  2.15728D-05 -7.39025D-04 -1.00396D-02  2.53205D-05 -3.60715D-03  1.25937D-02
  113    1.99586D-01 -6.15518D-04  4.98673D-03 -1.22153D-01  7.41527D-04 -1.88845D-03  1.74030D-01 -3.80250D-04  4.75343D-03 -1.69802D-01
  114    2.69358D-03  8.93612D-04  5.13662D-05 -7.45457D-04  2.49957D-03 -3.27660D-05  1.94290D-03 -9.38279D-04  7.31799D-05 -2.72488D-03


              51           52           53           54           55           56           57           58           59           60
   ----- ----- ----- ----- -----
   51    7.96646D+00
   52   -6.37104D-05  8.00647D+00
   53    8.34353D-03 -1.00786D+00  9.97523D+01
   54   -5.64215D+00  9.88826D-05 -6.43515D-03  7.99696D+00
   55   -1.02577D-04 -5.57478D+00  3.98587D-01  1.43475D-04  8.01235D+00
   56    5.73427D-03  3.51323D-01 -4.90736D+01 -5.74821D-03 -5.64577D-01  9.97551D+01
   57    2.07420D+00  8.37262D-05 -1.25411D-03 -5.57345D+00 -2.51696D-04  4.68856D-02  8.01011D+00
   58    9.98068D-06  2.07945D+00  4.88989D-02 -5.99825D-05 -5.66387D+00  1.04431D-01  2.27210D-04  8.01017D+00
   59   -3.18353D-03  1.22331D-01 -1.38325D+01 -5.23873D-03  5.93777D-02 -3.30174D+01 -2.98281D-02  1.03125D-01  9.97575D+01
   60   -7.90721D-01  1.07386D-04 -1.86972D-02  2.08060D+00  1.17988D-04 -2.58446D-02 -5.66557D+00  1.84635D-04  1.28536D-01  8.01086D+00
   61    5.25001D-05 -9.30543D-01  1.59376D-02  1.04678D-05  2.08125D+00 -5.57935D-02 -1.16514D-04 -5.57294D+00 -1.44025D-01 -2.17656D-04
   62    1.90268D-03 -7.59128D-02  8.16694D+00  2.70838D-03  3.70432D-02 -1.38617D+01 -1.60760D-02 -1.70288D-01 -4.90711D+01 -6.94267D-02
   63    6.32380D-01 -1.14783D-04  1.36914D-02 -9.31536D-01  3.10884D-05 -3.06302D-02  2.08193D+00 -2.78009D-04 -6.82366D-02 -5.57344D+00
   64   -4.46637D-05  6.31917D-01 -4.51419D-02  3.49917D-05 -7.90892D-01  7.63899D-02  1.04281D-04  2.07295D+00 -1.75505D-01 -3.25519D-04
   65   -1.59056D-03  4.83817D-02 -4.97974D+00 -1.65606D-03 -2.43537D-02  7.77567D+00  8.33149D-03 -6.67285D-02 -1.38135D+01 -2.80197D-02
   66   -3.61430D-01  1.37940D-04 -1.13156D-02  6.31761D-01 -2.05145D-05  2.09319D-02 -7.91098D-01 -1.77946D-04 -4.57515D-02  2.07347D+00
   67    3.13984D-05 -3.49554D-01  6.85700D-02 -1.51844D-05  6.28982D-01 -8.30801D-02 -5.15057D-05 -9.19786D-01  1.25190D-01  2.21019D-04
   68    1.42158D-03 -3.84603D-02  3.62293D+00  7.86200D-04  1.81610D-02 -4.98652D+00 -5.41228D-03  3.11199D-02  8.14110D+00  1.55069D-02
   69    1.77031D-01 -1.47791D-04  1.31451D-02 -3.48713D-01  7.97716D-05 -1.55669D-02  6.29188D-01  1.01881D-04  2.54432D-02 -9.20525D-01
   70   -3.06668D-05  1.78257D-01 -6.43595D-02 -2.65988D-06 -3.57887D-01  9.13165D-02  5.07569D-05  6.19904D-01 -9.94143D-02 -1.43535D-04
   71   -1.01231D-03  3.00852D-02 -2.74522D+00 -3.79454D-04 -1.59437D-02  3.44528D+00  3.29281D-03 -1.69585D-02 -4.95350D+00 -9.35471D-03
   72   -8.91200D-02  9.68874D-05 -1.01765D-02  1.76889D-01 -8.46833D-05  1.43029D-02 -3.57217D-01 -3.26298D-05 -1.47043D-02  6.21109D-01
   73    1.85666D-05 -9.28038D-02  5.55243D-02 -9.80322D-06  1.74111D-01 -7.38735D-02 -6.51654D-05 -3.41462D-01  1.15268D-01  1.51424D-04
   74    6.69473D-04 -2.29728D-02  2.20294D+00  4.04507D-04  1.44365D-02 -2.74592D+00 -2.34705D-03  7.63833D-03  3.58894D+00  6.15891D-03
   75    5.35486D-02 -8.77287D-05  7.62602D-03 -9.19655D-02  3.93822D-05 -9.84187D-03  1.73171D-01  1.85891D-05  1.61919D-02 -3.41158D-01
   76   -3.25418D-05  5.19386D-02 -6.09709D-02 -7.26064D-06 -8.74052D-02  7.51101D-02  4.36507D-05  1.72579D-01 -9.05469D-02 -1.34877D-04
   77   -4.54127D-04  1.64069D-02 -1.64813D+00 -4.17490D-04 -1.02276D-02  2.11185D+00  1.87094D-03 -3.83355D-03 -2.69590D+00 -4.31831D-03
   78   -3.01178D-02  6.04774D-05 -6.81910D-03  5.17427D-02 -4.27066D-05  7.85310D-03 -8.69729D-02 -3.09186D-05 -1.00133D-02  1.72078D-01
   79    1.16566D-05 -2.77510D-02  3.96260D-02  9.61253D-07  5.23679D-02 -5.32878D-02 -6.35807D-05 -8.86121D-02  7.94795D-02  1.08020D-04
   80    3.14626D-04 -1.27810D-02  1.29483D+00  3.64065D-04  7.00922D-03 -1.62876D+00 -1.53016D-03  3.76374D-03  2.14447D+00  3.52527D-03
   81    1.08941D-02 -3.79562D-05  4.18382D-03 -2.73115D-02  1.33911D-05 -4.52336D-03  5.22971D-02  1.92597D-05  6.53980D-03 -8.84389D-02
   82   -2.01859D-05  1.24896D-02 -4.07806D-02 -3.33711D-06 -2.91708D-02  4.99184D-02  3.53014D-05  4.86892D-02 -7.35230D-02 -1.10370D-04
   83   -2.42156D-04  9.70576D-03 -9.78879D-01 -3.30302D-04 -5.18695D-03  1.23338D+00  1.23059D-03 -3.31363D-03 -1.58348D+00 -2.67297D-03
   84   -4.57905D-03  2.26103D-05 -2.48665D-03  1.17373D-02 -8.75369D-06  2.58712D-03 -2.88197D-02 -2.04606D-05 -4.86460D-03  4.91232D-02
   85    1.13630D-05 -6.91869D-03  3.13148D-02  1.16579D-06  9.99229D-03 -3.70741D-02 -3.39330D-05 -2.56822D-02  4.89594D-02  7.07827D-05
   86    1.92653D-04 -7.65836D-03  7.61066D-01  2.49866D-04  4.14132D-03 -9.44725D-01 -9.89138D-04  2.52178D-03  1.22920D+00  2.08783D-03
   87    6.33032D-03 -7.43947D-08  2.07141D-03 -6.54996D-03  2.55245D-05 -2.76347D-03  9.78716D-03  2.70328D-05  2.23968D-03 -2.57672D-02
   88   -2.21650D-06  5.08135D-03 -2.08914D-02  7.41428D-06 -4.21615D-03  2.29634D-02  3.27058D-05  1.13248D-02 -4.38885D-02 -5.33635D-05
   89   -1.41529D-04  5.85906D-03 -5.90295D-01 -1.90668D-04 -3.26648D-03  7.14753D-01  7.30908D-04 -1.76574D-03 -9.11139D-01 -1.59379D-03
   90   -3.79436D-03 -8.34845D-06 -9.58039D-05  4.90998D-03  2.44791D-06 -6.54633D-05 -4.22709D-03 -1.02231D-05 -1.22092D-04  1.10789D-02
   91    7.42436D-06 -2.14540D-03  2.48019D-02  9.62032D-06  6.48287D-03 -3.08996D-02 -1.73287D-05 -5.85594D-03  3.51282D-02  6.17361D-05
   92    1.07245D-04 -4.51686D-03  4.46129D-01  1.59584D-04  2.22972D-03 -5.55345D-01 -5.65846D-04  1.10843D-03  6.90443D-01  1.17822D-03
   93   -1.17001D-03  4.35063D-06  2.86212D-04 -1.94908D-03  2.67887D-06  1.40279D-03  6.33482D-03  1.76550D-05 -1.96109D-03 -5.93021D-03
   94    3.61343D-06  3.80936D-04 -9.99742D-03  5.51264D-06 -3.46845D-03  1.38120D-02  2.80363D-05  4.24050D-03 -2.53518D-02 -2.95379D-05
   95   -7.85375D-05  3.55295D-03 -3.41797D-01 -1.24774D-04 -1.76143D-03  4.09804D-01  4.42644D-04 -9.61598D-04 -5.22465D-01 -9.21822D-04
   96    8.01774D-04 -1.71489D-05  2.33208D-04  4.24738D-05 -2.63109D-06 -1.14800D-03 -3.49223D-03 -2.00652D-05  2.88309D-03  4.31167D-03
   97    2.16724D-05 -8.20084D-04  1.64639D-02  7.28717D-06 -1.51020D-03 -1.75930D-02 -1.10974D-05 -1.62477D-03  2.14966D-02  3.41969D-05
   98    4.67079D-04 -2.30890D-03  3.59845D-01  2.62363D-04  3.78750D-03 -4.81285D-01 -2.34148D-04  2.02934D-03  4.68553D-01  9.24518D-04
   99    2.14766D-03  2.07260D-05 -2.06203D-03 -6.12678D-04 -5.23053D-06  7.54486D-04 -1.68397D-03 -1.39418D-05 -1.51546D-03 -1.74205D-03
  100   -4.41169D-06  8.39206D-04 -6.36656D-03 -2.51630D-06  8.85706D-04  6.66860D-03  2.23100D-05  1.98626D-04 -1.10286D-02 -1.99703D-05
  101   -2.96532D-05  1.84242D-03 -1.85256D-01 -1.39149D-04 -1.04446D-03  2.27984D-01  3.39856D-04 -3.39580D-04 -2.79009D-01 -5.60075D-04
  102   -1.14114D-03 -1.27330D-05  3.69805D-04  9.01029D-04 -1.33868D-05 -5.62849D-04  8.49384D-04 -7.75068D-06  1.75652D-03  1.74646D-04
  103    1.45564D-05  1.27604D-04  5.47642D-03  3.16593D-06  2.26484D-03 -5.68352D-03 -8.19791D-06 -6.00305D-04  1.03010D-02  1.04545D-05
  104   -8.60981D-06 -1.26169D-03  1.22897D-01  6.04967D-05  5.02927D-04 -1.49218D-01 -1.51242D-04  2.85453D-04  1.83941D-01  3.20922D-04
  105   -1.45183D-03  1.97447D-05 -2.05413D-03  8.84553D-05 -3.14300D-06 -5.56556D-05  2.31168D-03 -2.04263D-05 -1.00587D-03 -7.81857D-04
  106    7.06359D-06 -2.96473D-04 -6.13863D-03 -5.43069D-07 -8.85552D-04  5.66190D-03 -8.51274D-06  5.01805D-04 -5.43566D-03 -9.23786D-06
  107   -6.49797D-05  4.64266D-04 -5.81543D-02  8.92869D-05 -2.47890D-04  7.75055D-02 -1.24468D-04 -3.41962D-04 -8.42405D-02  3.36391D-05
  108    5.71120D-04 -7.99453D-06  2.32219D-03 -3.25408D-04 -3.34631D-06  8.29891D-04 -8.60603D-04  4.32714D-05 -3.42993D-04  7.18025D-04
  109   -1.92815D-06 -3.22056D-04  2.15290D-03 -7.34429D-06 -1.86075D-03  1.65539D-04  2.93232D-06  9.94290D-05  2.18684D-03  3.66094D-06
  110    1.51644D-05 -5.54862D-04  2.46041D-02 -2.15543D-05  4.15484D-04 -2.97132D-02 -2.07147D-05 -2.77380D-04  4.27537D-02  2.05824D-05
  111    1.45490D-03  4.89030D-06 -3.65528D-04 -2.69509D-04  4.35880D-06 -2.15745D-04 -1.85207D-03 -4.69841D-06 -2.56227D-04  1.19593D-04
  112   -7.35135D-05  9.07882D-04 -4.86119D-03 -1.36061D-05  4.00522D-03  1.17838D-02  1.33786D-05 -6.03462D-04 -7.08024D-03 -2.14869D-05
  113    5.22998D-04  1.15246D-03  1.00980D-01 -1.26361D-04  2.14128D-03 -1.72455D-01  7.15664D-04  2.43663D-03  5.91587D-03 -3.15313D-04
  114   -3.20771D-03 -9.98922D-06  8.06113D-04  8.93972D-04  3.68757D-05 -2.38583D-03  4.17293D-03 -6.12639D-06  1.45156D-03 -6.45063D-04


              61           62           63           64           65           66           67           68           69           70
   ----- ----- ----- ----- -----
   61    8.00058D+00
   62    5.70790D-01  9.97589D+01
   63    1.24477D-03  1.84012D-01  7.99788D+00
   64   -5.64363D+00 -2.42282D-01 -5.98079D-04  7.98162D+00
   65   -2.71044D-01 -3.30042D+01 -6.89092D-02  1.23479D+00  9.98495D+01
   66   -7.06197D-04 -6.73886D-02 -5.64282D+00  3.49201D-03  2.56649D-01  7.96838D+00
   67    2.05281D+00 -2.67156D-01 -6.62986D-04 -5.53135D+00 -6.91276D-01 -2.02321D-03  7.95763D+00
[...]
   30 C                    6.0000     0.03449943    13.53736771     0.02035487
   31 C                    6.0000     0.09354649    14.79207987     0.01844824
   32 C                    6.0000     0.15740538    16.11432085     0.01426740
   33 C                    6.0000     0.21891161    17.36520716     0.00820522
   34 C                    6.0000     0.28452002    18.69347286    -0.00021635
   35 C                    6.0000     0.34621561    19.93763253    -0.00976473
   36 C                    6.0000     0.41315460    21.28197023    -0.02144975
   37 C                    6.0000     0.47464075    22.50874907    -0.03277772
   38 H                    1.0000     0.52861444    23.57903653    -0.04302371


  Geometry after  -50.0% step for mode  1; Step length =  0.087 angstroms 
   Maximum component (any atom: x,y, or z) displacement:  0.078
    1 C                    6.0000     0.39663684   -22.51343007    -0.00019814
    2 C                    6.0000     0.35032788   -21.28590947     0.00117976
    3 H                    1.0000     0.43728854   -23.58440992    -0.00146805
    4 C                    6.0000     0.29975007   -19.94078832     0.00255051
    5 C                    6.0000     0.25271150   -18.69593990     0.00354547
    6 C                    6.0000     0.20191087   -17.36697585     0.00423266
    7 C                    6.0000     0.15353771   -16.11549803     0.00442800
    8 C                    6.0000     0.10219037   -14.79270211     0.00414655
    9 C                    6.0000     0.05361099   -13.53753927     0.00333108
   10 C                    6.0000     0.00303209   -12.21859784     0.00201377
   11 C                    6.0000    -0.04411487   -10.96108041     0.00026072
   12 C                    6.0000    -0.09184869    -9.64434552    -0.00183198
   13 C                    6.0000    -0.13500975    -8.38520808    -0.00412393
   14 C                    6.0000    -0.17693479    -7.06974965    -0.00641720
   15 C                    6.0000    -0.21295649    -5.80938635    -0.00859776
   16 C                    6.0000    -0.24570371    -4.49457683    -0.01033900
   17 C                    6.0000    -0.27133039    -3.23329342    -0.01165469
   18 C                    6.0000    -0.29170383    -1.91871810    -0.01209976
   19 C                    6.0000    -0.30408039    -0.65689031    -0.01190632
   20 C                    6.0000    -0.30963704     0.65767685    -0.01053253
   21 C                    6.0000    -0.30699662     1.91955678    -0.00849891
   22 C                    6.0000    -0.29659548     3.23423885    -0.00525227
   23 C                    6.0000    -0.27863130     4.49564249    -0.00158394
   24 C                    6.0000    -0.25265599     5.81058967     0.00297193
   25 C                    6.0000    -0.22055928     7.07104292     0.00742981
   26 C                    6.0000    -0.18080423     8.38655337     0.01209567
   27 C                    6.0000    -0.13693621     9.64565131     0.01594173
   28 C                    6.0000    -0.08625355    10.96226164     0.01907064
   29 C                    6.0000    -0.03374285    12.21956140     0.02065516
   30 C                    6.0000     0.02444874    13.53817587     0.02060181
   31 C                    6.0000     0.08227172    14.79293264     0.01857520
   32 C                    6.0000     0.14489316    16.11520092     0.01424633
   33 C                    6.0000     0.20522098    17.36611631     0.00802474
   34 C                    6.0000     0.26949086    18.69441485    -0.00058282
   35 C                    6.0000     0.32981832    19.93861834    -0.01032009
   36 C                    6.0000     0.39504743    21.28301651    -0.02222244
   37 C                    6.0000     0.45480612    22.50987957    -0.03375628
   38 H                    1.0000     0.50719863    23.58024557    -0.04418493


  Geometry after  127.9% step for mode  1; Step length =  0.222 angstroms 
   Maximum component (any atom: x,y, or z) displacement:  0.200
    1 C                    6.0000     0.52222788   -22.50621420    -0.00026147
    2 C                    6.0000     0.45116810   -21.27977992     0.00123884
    3 H                    1.0000     0.58449753   -23.57611896    -0.00163957
    4 C                    6.0000     0.37374422   -19.93584554     0.00273859
    5 C                    6.0000     0.30286776   -18.69204084     0.00384014
    6 C                    6.0000     0.22845371   -17.36417224     0.00461932
    7 C                    6.0000     0.15964888   -16.11357678     0.00487744
    8 C                    6.0000     0.08921516   -14.79162425     0.00463338
    9 C                    6.0000     0.02531974   -13.53710218     0.00382366
   10 C                    6.0000    -0.03827540   -12.21871777     0.00248239
   11 C                    6.0000    -0.09483246   -10.96158284     0.00067914
   12 C                    6.0000    -0.14926538    -9.64511936    -0.00148942
   13 C                    6.0000    -0.19585664    -8.38613185    -0.00387223
   14 C                    6.0000    -0.23858610    -7.07070753    -0.00627453
   15 C                    6.0000    -0.27304021    -5.81032253    -0.00856774
   16 C                    6.0000    -0.30212352    -4.49542348    -0.01042992
   17 C                    6.0000    -0.32268217    -3.23405042    -0.01186131
   18 C                    6.0000    -0.33666053    -1.91936792    -0.01242505
   19 C                    6.0000    -0.34225282    -0.65747577    -0.01234088
   20 C                    6.0000    -0.34043980     0.65714984    -0.01107536
   21 C                    6.0000    -0.33074462     1.91902632    -0.00913711
   22 C                    6.0000    -0.31326789     3.23368359    -0.00597860
   23 C                    6.0000    -0.28897157     4.49500479    -0.00237984
   24 C                    6.0000    -0.25698960     5.80985873     0.00212338
   25 C                    6.0000    -0.21977912     7.07018651     0.00655421
   26 C                    6.0000    -0.17538954     8.38558307     0.01122303
   27 C                    6.0000    -0.12772916     9.64455107     0.01510897
   28 C                    6.0000    -0.07367255    10.96105121     0.01832416
   29 C                    6.0000    -0.01839840    12.21823043     0.02003592
   30 C                    6.0000     0.04232915    13.53673815     0.02016249
   31 C                    6.0000     0.10232980    14.79141553     0.01834933
   32 C                    6.0000     0.16715270    16.11363526     0.01428382
   33 C                    6.0000     0.22957693    17.36449891     0.00834582
   34 C                    6.0000     0.29622809    18.69273902     0.00006913
   35 C                    6.0000     0.35898949    19.93686455    -0.00933209
   36 C                    6.0000     0.42726052    21.28115515    -0.02084781
   37 C                    6.0000     0.49009240    22.50786838    -0.03201541
   38 H                    1.0000     0.54529785    23.57809467    -0.04211909


  Geometry after -127.9% step for mode  1; Step length =  0.222 angstroms 
   Maximum component (any atom: x,y, or z) displacement:  0.200
    1 C                    6.0000     0.34164130   -22.51658985    -0.00017041
    2 C                    6.0000     0.30617057   -21.28859356     0.00115388
    3 H                    1.0000     0.37282663   -23.58804049    -0.00139294
    4 C                    6.0000     0.26734849   -19.94295273     0.00246816
    5 C                    6.0000     0.23074838   -18.69764728     0.00341643
    6 C                    6.0000     0.19028793   -17.36820353     0.00406334
    7 C                    6.0000     0.15086166   -16.11633933     0.00423119
    8 C                    6.0000     0.10787213   -14.79317410     0.00393337
    9 C                    6.0000     0.06599955   -13.53773066     0.00311538
   10 C                    6.0000     0.02112039   -12.21854533     0.00180857
   11 C                    6.0000    -0.02190594   -10.96086040     0.00007750
   12 C                    6.0000    -0.06670627    -9.64400666    -0.00198198
   13 C                    6.0000    -0.10836527    -8.38480357    -0.00423414
   14 C                    6.0000    -0.14993806    -7.06933020    -0.00647968
   15 C                    6.0000    -0.18664621    -5.80897641    -0.00861091
   16 C                    6.0000    -0.22099782    -4.49420609    -0.01029919
   17 C                    6.0000    -0.24884376    -3.23296194    -0.01156421
   18 C                    6.0000    -0.27201757    -1.91843355    -0.01195732
   19 C                    6.0000    -0.28736492    -0.65663394    -0.01171603
   20 C                    6.0000    -0.29614870     0.65790763    -0.01029483
   21 C                    6.0000    -0.29659751     1.91978906    -0.00821945
   22 C                    6.0000    -0.28929474     3.23448199    -0.00493421
   23 C                    6.0000    -0.27410335     4.49592174    -0.00123542
   24 C                    6.0000    -0.25075833     5.81090974     0.00334351
   25 C                    6.0000    -0.22090091     7.07141794     0.00781323
   26 C                    6.0000    -0.18317529     8.38697826     0.01247779
   27 C                    6.0000    -0.14096792     9.64613310     0.01630639
   28 C                    6.0000    -0.09176269    10.96279168     0.01939752
   29 C                    6.0000    -0.04046209    12.22014423     0.02092632
   30 C                    6.0000     0.01661902    13.53880544     0.02079419
   31 C                    6.0000     0.07348841    14.79359697     0.01867411
   32 C                    6.0000     0.13514584    16.11588652     0.01422991
   33 C                    6.0000     0.19455566    17.36682455     0.00788414
   34 C                    6.0000     0.25778279    18.69514869    -0.00086831
   35 C                    6.0000     0.31704444    19.93938631    -0.01075272
   36 C                    6.0000     0.38094152    21.28383159    -0.02282438
   37 C                    6.0000     0.43935447    22.51076025    -0.03451860
   38 H                    1.0000     0.49051521    23.58118744    -0.04508955


  Geometry after   64.0% step for mode  1; Step length =  0.111 angstroms 
   Maximum component (any atom: x,y, or z) displacement:  0.100
    1 C                    6.0000     0.47708124   -22.50880811    -0.00023871
    2 C                    6.0000     0.41491872   -21.28198333     0.00121760
    3 H                    1.0000     0.53157981   -23.57909934    -0.00157791
    4 C                    6.0000     0.34714529   -19.93762234     0.00267098
    5 C                    6.0000     0.28483791   -18.69344245     0.00373421
    6 C                    6.0000     0.21891226   -17.36518006     0.00448033
    7 C                    6.0000     0.15745207   -16.11426742     0.00471588
    8 C                    6.0000     0.09387941   -14.79201171     0.00445838
    9 C                    6.0000     0.03548969   -13.53725930     0.00364659
   10 C                    6.0000    -0.02342645   -12.21867466     0.00231393
   11 C                    6.0000    -0.07660083   -10.96140223     0.00052873
   12 C                    6.0000    -0.12862560    -9.64484118    -0.00161256
   13 C                    6.0000    -0.17398380    -8.38579978    -0.00396271
   14 C                    6.0000    -0.21642409    -7.07036320    -0.00632582
   15 C                    6.0000    -0.25144171    -5.80998600    -0.00857853
   16 C                    6.0000    -0.28184210    -4.49511913    -0.01039724
   17 C                    6.0000    -0.30422257    -3.23377830    -0.01178703
   18 C                    6.0000    -0.32049979    -1.91913432    -0.01230812
   19 C                    6.0000    -0.32853085    -0.65726531    -0.01218467
   20 C                    6.0000    -0.32936702     0.65733928    -0.01088022
   21 C                    6.0000    -0.32220784     1.91921701    -0.00890769
   22 C                    6.0000    -0.30727460     3.23388319    -0.00571750
   23 C                    6.0000    -0.28525452     4.49523402    -0.00209373
   24 C                    6.0000    -0.25543178     5.81012148     0.00242841
   25 C                    6.0000    -0.22005957     7.07049437     0.00686897
   26 C                    6.0000    -0.17733598     8.38593187     0.01153672
   27 C                    6.0000    -0.13103885     9.64494657     0.01540833
   28 C                    6.0000    -0.07819508    10.96148633     0.01859250
   29 C                    6.0000    -0.02391433    12.21870888     0.02025852
   30 C                    6.0000     0.03590162    13.53725497     0.02032041
   31 C                    6.0000     0.09511945    14.79196089     0.01843052
   32 C                    6.0000     0.15915099    16.11419807     0.01427034
   33 C                    6.0000     0.22082161    17.36508032     0.00823040
   34 C                    6.0000     0.28661676    18.69334144    -0.00016523
   35 C                    6.0000     0.34850323    19.93749499    -0.00968725
   36 C                    6.0000     0.41568077    21.28182426    -0.02134196
   37 C                    6.0000     0.47740792    22.50859135    -0.03264120
   38 H                    1.0000     0.53160219    23.57886786    -0.04286170


  Geometry after  -64.0% step for mode  1; Step length =  0.111 angstroms 
   Maximum component (any atom: x,y, or z) displacement:  0.100
    1 C                    6.0000     0.38678795   -22.51399594    -0.00019318
    2 C                    6.0000     0.34241996   -21.28639015     0.00117512
    3 H                    1.0000     0.42574436   -23.58506010    -0.00145459
    4 C                    6.0000     0.29394742   -19.94117593     0.00253577
    5 C                    6.0000     0.24877823   -18.69624567     0.00352236
    6 C                    6.0000     0.19982937   -17.36719571     0.00420234
    7 C                    6.0000     0.15305847   -16.11564869     0.00439276
    8 C                    6.0000     0.10320789   -14.79278664     0.00410838
    9 C                    6.0000     0.05582960   -13.53757354     0.00329245
   10 C                    6.0000     0.00627144   -12.21858844     0.00197702
   11 C                    6.0000    -0.04013757   -10.96104101     0.00022791
   12 C                    6.0000    -0.08734605    -9.64428483    -0.00185884
   13 C                    6.0000    -0.13023812    -8.38513564    -0.00414366
   14 C                    6.0000    -0.17210007    -7.06967453    -0.00642839
   15 C                    6.0000    -0.20824471    -5.80931294    -0.00860012
   16 C                    6.0000    -0.24127925    -4.49451044    -0.01033187
   17 C                    6.0000    -0.26730336    -3.23323406    -0.01163848
   18 C                    6.0000    -0.28817831    -1.91866714    -0.01207425
   19 C                    6.0000    -0.30108690    -0.65684439    -0.01187224
   20 C                    6.0000    -0.30722147     0.65771818    -0.01048996
   21 C                    6.0000    -0.30513429     1.91959837    -0.00844886
   22 C                    6.0000    -0.29528803     3.23428239    -0.00519531
   23 C                    6.0000    -0.27782041     4.49569250    -0.00152152
   24 C                    6.0000    -0.25231615     5.81064699     0.00303847
   25 C                    6.0000    -0.22062046     7.07111008     0.00749848
   26 C                    6.0000    -0.18122885     8.38662946     0.01216410
   27 C                    6.0000    -0.13765823     9.64573759     0.01600704
   28 C                    6.0000    -0.08724015    10.96235656     0.01912918
   29 C                    6.0000    -0.03494617    12.21966578     0.02070372
   30 C                    6.0000     0.02304655    13.53828861     0.02063627
   31 C                    6.0000     0.08069876    14.79305161     0.01859291
   32 C                    6.0000     0.14314756    16.11532370     0.01424339
   33 C                    6.0000     0.20331098    17.36624314     0.00799956
   34 C                    6.0000     0.26739412    18.69454627    -0.00063395
   35 C                    6.0000     0.32753070    19.93875587    -0.01039756
   36 C                    6.0000     0.39252127    21.28316248    -0.02233024
   37 C                    6.0000     0.45203895    22.51003728    -0.03389280
   38 H                    1.0000     0.50421087    23.58041425    -0.04434693


 vib:animation  F

 Task  times  cpu:        0.0s     wall:        0.1s
 
 
                                NWChem Input Module
                                -------------------
 
 
 Summary of allocated global arrays
-----------------------------------
  No active global arrays



                         GA Statistics for process    0
                         ------------------------------

       create   destroy   get      put      acc     scatter   gather  read&inc
calls:    0        0        0        0        0        0        0        0     
number of processes/call 0.00e+00 0.00e+00 0.00e+00 0.00e+00 0.00e+00
bytes total:             0.00e+00 0.00e+00 0.00e+00 0.00e+00 0.00e+00 0.00e+00
bytes remote:            0.00e+00 0.00e+00 0.00e+00 0.00e+00 0.00e+00 0.00e+00
Max memory consumed for GA by this process: 0 bytes
 
MA_summarize_allocated_blocks: starting scan ...
MA_summarize_allocated_blocks: scan completed: 0 heap blocks, 0 stack blocks
MA usage statistics:

	allocation statistics:
					      heap	     stack
					      ----	     -----
	current number of blocks	         0	         0
	maximum number of blocks	         1	         4
	current total bytes		         0	         0
	maximum total bytes		       128	    870968
	maximum total K-bytes		         1	       871
	maximum total M-bytes		         1	         1
 
 
                                     CITATION
                                     --------
                Please cite the following reference when publishing
                           results obtained with NWChem:
 
                 M. Valiev, E.J. Bylaska, N. Govind, K. Kowalski,
              T.P. Straatsma, H.J.J. van Dam, D. Wang, J. Nieplocha,
                        E. Apra, T.L. Windus, W.A. de Jong
                 "NWChem: a comprehensive and scalable open-source
                  solution for large scale molecular simulations"
                      Comput. Phys. Commun. 181, 1477 (2010)
                           doi:10.1016/j.cpc.2010.04.018
 
                                      AUTHORS
                                      -------
          E. Apra, E. J. Bylaska, W. A. de Jong, N. Govind, K. Kowalski,
       T. P. Straatsma, M. Valiev, H. J. J. van Dam, D. Wang, T. L. Windus,
        J. Hammond, J. Autschbach, K. Bhaskaran-Nair, J. Brabec, K. Lopata,
        S. Krishnamoorthy, W. Ma, M. Klemm, O. Villa, Y. Chen, V. Anisimov,
    F. Aquino, S. Hirata, M. T. Hackler, T. Risthaus, M. Malagoli, A. Marenich,
   A. Otero-de-la-Roza, J. Mullin, P. Nichols, R. Peverati, J. Pittner, Y. Zhao,
         P.-D. Fan, A. Fonari, R. J. Harrison, M. Dupuis, D. Silverstein,
    D. M. A. Smith, J. Nieplocha, V. Tipparaju, M. Krishnan, B. E. Van Kuiken,
        A. Vazquez-Mayagoitia, L. Jensen, M. Swart, Q. Wu, T. Van Voorhis,
     A. A. Auer, M. Nooijen, L. D. Crosby, E. Brown, G. Cisneros, G. I. Fann,
   H. Fruchtl, J. Garza, K. Hirao, R. A. Kendall, J. A. Nichols, K. Tsemekhman,
    K. Wolinski, J. Anchell, D. E. Bernholdt, P. Borowski, T. Clark, D. Clerc,
   H. Dachsel, M. J. O. Deegan, K. Dyall, D. Elwood, E. Glendening, M. Gutowski,
   A. C. Hess, J. Jaffe, B. G. Johnson, J. Ju, R. Kobayashi, R. Kutteh, Z. Lin,
   R. Littlefield, X. Long, B. Meng, T. Nakajima, S. Niu, L. Pollack, M. Rosing,
   K. Glaesemann, G. Sandrone, M. Stave, H. Taylor, G. Thomas, J. H. van Lenthe,
                               A. T. Wong, Z. Zhang.

 Total times  cpu:        0.1s     wall:        0.9s
 
TACC: Shutdown complete. Exiting.
