 argument  1 = run.nw



============================== echo of input deck ==============================
echo

start c3

title "TDDFT c3 BLYP/pcs0"

geometry units angstroms
load c3.xyz
end

basis  spherical
 * library pcS-0
end

dft
 xc becke88 lyp
 direct
 convergence nolevelshifting
 tolerances tight
 iterations 1000
end

hessian
 thresh 1d-8
 profile
end

property
 response  1 8.8559E-2
 damping 0.007
end

raman
 normal
end

driver
 maxiter 1000
 xyz opt
end

task dft optimize
task dft raman numerical

freq
 reuse
 temp 1 0.0
end

task dft freq numerical

================================================================================


                                         
                                         


              Northwest Computational Chemistry Package (NWChem) 6.6
              ------------------------------------------------------


                    Environmental Molecular Sciences Laboratory
                       Pacific Northwest National Laboratory
                                Richland, WA 99352

                              Copyright (c) 1994-2015
                       Pacific Northwest National Laboratory
                            Battelle Memorial Institute

             NWChem is an open-source computational chemistry package
                        distributed under the terms of the
                      Educational Community License (ECL) 2.0
             A copy of the license is included with this distribution
                              in the LICENSE.TXT file

                                  ACKNOWLEDGMENT
                                  --------------

            This software and its documentation were developed at the
            EMSL at Pacific Northwest National Laboratory, a multiprogram
            national laboratory, operated for the U.S. Department of Energy
            by Battelle under Contract Number DE-AC05-76RL01830. Support
            for this work was provided by the Department of Energy Office
            of Biological and Environmental Research, Office of Basic
            Energy Sciences, and the Office of Advanced Scientific Computing.


           Job information
           ---------------

    hostname        = alarcj-ThinkPad-T430s
    program         = nwchem
    date            = Thu Sep 29 09:30:17 2016

    compiled        = Mon_Feb_15_08:24:17_2016
    source          = /build/nwchem-MF0R1k/nwchem-6.6+r27746
    nwchem branch   = 6.6
    nwchem revision = 27746
    ga revision     = 10594
    input           = run.nw
    prefix          = c3.
    data base       = ./c3.db
    status          = startup
    nproc           =        1
    time left       =     -1s



           Memory information
           ------------------

    heap     =   13107196 doubles =    100.0 Mbytes
    stack    =   13107201 doubles =    100.0 Mbytes
    global   =   26214400 doubles =    200.0 Mbytes (distinct from heap & stack)
    total    =   52428797 doubles =    400.0 Mbytes
    verify   = yes
    hardfail = no 


           Directory information
           ---------------------

  0 permanent = .
  0 scratch   = .




                                NWChem Input Module
                                -------------------


                                TDDFT c3 BLYP/pcs0
                                ------------------

 Scaling coordinates for geometry "geometry" by  1.889725989
 (inverse scale =  0.529177249)

 CS  symmetry detected

          ------
          auto-z
          ------
  autoz: insufficient variables                     2                    3
     1 autoz failed with cvr_scaling = 1.2 changing to 1.3
  autoz: insufficient variables                     2                    3
     2 autoz failed with cvr_scaling = 1.3 changing to 1.4
  autoz: insufficient variables                     2                    3
     3 autoz failed with cvr_scaling = 1.4 changing to 1.5
  autoz: insufficient variables                     2                    3
     4 autoz failed with cvr_scaling = 1.5 changing to 1.6


                             Geometry "geometry" -> ""
                             -------------------------

 Output coordinates in angstroms (scale by  1.889725989 to convert to a.u.)

  No.       Tag          Charge          X              Y              Z
 ---- ---------------- ---------- -------------- -------------- --------------
    1 C                    6.0000    -0.00429970     1.19408428     0.00000000
    2 C                    6.0000     0.00851447     0.00796646     0.00000000
    3 C                    6.0000    -0.00421477    -1.20205074     0.00000000

      Atomic Mass 
      ----------- 

      C                 12.000000


 Effective nuclear repulsion energy (a.u.)      39.7536667848

            Nuclear Dipole moment (a.u.) 
            ----------------------------
        X                 Y               Z
 ---------------- ---------------- ----------------
     0.0000000000     0.0000000000     0.0000000000

      Symmetry information
      --------------------

 Group name             Cs        
 Group number              2
 Group order               2
 No. of unique centers     3

      Symmetry unique atoms

     1    2    3



                                Z-matrix (autoz)
                                -------- 

 Units are Angstrom for bonds and degrees for angles

      Type          Name      I     J     K     L     M      Value
      ----------- --------  ----- ----- ----- ----- ----- ----------
    1 Stretch                  1     2                       1.18619
    2 Stretch                  1     3                       2.39614
    3 Stretch                  2     3                       1.21008


            XYZ format geometry
            -------------------
     3
 geometry
 C                    -0.00429970     1.19408428     0.00000000
 C                     0.00851447     0.00796646     0.00000000
 C                    -0.00421477    -1.20205074     0.00000000

 ==============================================================================
                                internuclear distances
 ------------------------------------------------------------------------------
       center one      |      center two      | atomic units |  angstroms
 ------------------------------------------------------------------------------
    2 C                |   1 C                |     2.24157  |     1.18619
    3 C                |   2 C                |     2.28673  |     1.21008
 ------------------------------------------------------------------------------
                         number of included internuclear distances:          2
 ==============================================================================



 ==============================================================================
                                 internuclear angles
 ------------------------------------------------------------------------------
        center 1       |       center 2       |       center 3       |  degrees
 ------------------------------------------------------------------------------
    1 C                |   2 C                |   3 C                |   178.78
 ------------------------------------------------------------------------------
                            number of included internuclear angles:          1
 ==============================================================================





 Summary of "ao basis" -> "" (spherical)
 ------------------------------------------------------------------------------
       Tag                 Description            Shells   Functions and Types
 ---------------- ------------------------------  ------  ---------------------
 *                           pcS-0                    on all atoms 




                           NWChem Geometry Optimization
                           ----------------------------




                                TDDFT c3 BLYP/pcs0


 maximum gradient threshold         (gmax) =   0.000450
 rms gradient threshold             (grms) =   0.000300
 maximum cartesian step threshold   (xmax) =   0.001800
 rms cartesian step threshold       (xrms) =   0.001200
 fixed trust radius                (trust) =   0.300000
 maximum step size to saddle      (sadstp) =   0.100000
 energy precision                  (eprec) =   5.0D-06
 maximum number of steps          (nptopt) = 1000
 initial hessian option           (inhess) =    0
 line search option               (linopt) =    1
 hessian update option            (modupd) =    1
 saddle point option              (modsad) =    0
 initial eigen-mode to follow     (moddir) =    0
 initial variable to follow       (vardir) =    0
 follow first negative mode     (firstneg) =    T
 apply conjugacy                    (opcg) =    F
 source of zmatrix                         =   autoz   


          -------------------
          Energy Minimization
          -------------------


 Names of Z-matrix variables 
    1              2              3         

 Variables with the same non-blank name are constrained to be equal


 Using old Hessian from previous optimization

          --------
          Step   0
          --------


                         Geometry "geometry" -> "geometry"
                         ---------------------------------

 Output coordinates in angstroms (scale by  1.889725989 to convert to a.u.)

  No.       Tag          Charge          X              Y              Z
 ---- ---------------- ---------- -------------- -------------- --------------
    1 C                    6.0000    -0.00429970     1.19408428     0.00000000
    2 C                    6.0000     0.00851447     0.00796646     0.00000000
    3 C                    6.0000    -0.00421477    -1.20205074     0.00000000

      Atomic Mass 
      ----------- 

      C                 12.000000


 Effective nuclear repulsion energy (a.u.)      39.7536667848

            Nuclear Dipole moment (a.u.) 
            ----------------------------
        X                 Y               Z
 ---------------- ---------------- ----------------
     0.0000000000     0.0000000000     0.0000000000

      Symmetry information
      --------------------

 Group name             Cs        
 Group number              2
 Group order               2
 No. of unique centers     3

      Symmetry unique atoms

     1    2    3


                                 NWChem DFT Module
                                 -----------------


                                TDDFT c3 BLYP/pcs0



 **** WARNING Zero Coefficient **** on atom "               C"
 angular momentum value: 0  standard basis set name: "pcS-0"
 input line that generated warning:
    64:       0.446509E+03           0.399403E-01           0.000000E+00
  

 **** WARNING Zero Coefficient **** on atom "               C"
 angular momentum value: 0  standard basis set name: "pcS-0"
 input line that generated warning:
    67:       0.393876E+01           0.000000E+00          -0.500000E+00
  
                      Basis "ao basis" -> "ao basis" (spherical)
                      -----
  C (Carbon)
  ----------
            Exponent  Coefficients 
       -------------- ---------------------------------------------------------
  1 S  4.46509000E+02  0.039940
  1 S  6.74620000E+01  0.276430
  1 S  1.50674000E+01  0.500000

  2 S  6.74620000E+01  0.002028
  2 S  1.50674000E+01 -0.209826
  2 S  3.93876000E+00 -0.500000

  3 S  2.99915000E-01  1.000000

  4 P  2.83900000E+01  0.010604
  4 P  4.36769000E+00  0.110992
  4 P  8.69817000E-01  0.500000

  5 P  1.88934000E-01  1.000000



 Summary of "ao basis" -> "ao basis" (spherical)
 ------------------------------------------------------------------------------
       Tag                 Description            Shells   Functions and Types
 ---------------- ------------------------------  ------  ---------------------
 C                           pcS-0                   5        9   3s2p




 Summary of "ao basis" -> "ao basis" (spherical)
 ------------------------------------------------------------------------------
       Tag                 Description            Shells   Functions and Types
 ---------------- ------------------------------  ------  ---------------------
 C                           pcS-0                   5        9   3s2p


      Symmetry analysis of basis
      --------------------------

        a'         21
        a"          6

  Caching 1-el integrals 

            General Information
            -------------------
          SCF calculation type: DFT
          Wavefunction type:  closed shell.
          No. of atoms     :     3
          No. of electrons :    18
           Alpha electrons :     9
            Beta electrons :     9
          Charge           :     0
          Spin multiplicity:     1
          Use of symmetry is: on ; symmetry adaption is: on 
          Maximum number of iterations: ***
          This is a Direct SCF calculation.
          AO basis - number of functions:    27
                     number of shells:    15
          Convergence on energy requested: 1.00D-06
          Convergence on density requested: 1.00D-05
          Convergence on gradient requested: 5.00D-04

              XC Information
              --------------
                    Becke 1988 Exchange Functional  1.000          
              Lee-Yang-Parr Correlation Functional  1.000          

             Grid Information
             ----------------
          Grid used for XC integration:  medium    
          Radial quadrature: Mura-Knowles        
          Angular quadrature: Lebedev. 
          Tag              B.-S. Rad. Rad. Pts. Rad. Cut. Ang. Pts.
          ---              ---------- --------- --------- ---------
          C                   0.70       49           7.0       434
          Grid pruning is: on 
          Number of quadrature shells:   147
          Spatial weights used:  Erf1

          Convergence Information
          -----------------------
          Convergence aids based upon iterative change in 
          total energy or number of iterations. 
          Levelshifting, if invoked, occurs when the 
          HOMO/LUMO gap drops below (HL_TOL): 1.00D-02
          DIIS, if invoked, will attempt to extrapolate 
          using up to (NFOCK): 10 stored Fock matrices.

                    Damping( 0%)  Levelshifting(0.0)       DIIS
                  --------------- ------------------- ---------------
          dE  on:    start             N/A                start   
          dE off:    2 iters           N/A              *** iters 


      Screening Tolerance Information
      -------------------------------
          Density screening/tol_rho: 1.00D-10
          AO Gaussian exp screening on grid/accAOfunc:  14
          CD Gaussian exp screening on grid/accCDfunc:  20
          XC Gaussian exp screening on grid/accXCfunc:  20
          Schwarz screening/accCoul: 1.00D-08


      Superposition of Atomic Density Guess
      -------------------------------------

 Sum of atomic energies:        -112.70851415

      Non-variational initial energy
      ------------------------------

 Total energy =    -113.887385
 1-e energy   =    -229.247634
 2-e energy   =      75.606582
 HOMO         =      -0.271711
 LUMO         =      -0.097077


      Symmetry analysis of molecular orbitals - initial
      -------------------------------------------------

  Numbering of irreducible representations: 

     1 a'          2 a"      

  Orbital symmetries:

     1 a'          2 a'          3 a'          4 a'          5 a'      
     6 a'          7 a"          8 a'          9 a'         10 a"      
    11 a'         12 a'         13 a"         14 a'         15 a'      
    16 a'         17 a'         18 a"         19 a'      

   Time after variat. SCF:      0.1
   Time prior to 1st pass:      0.1

 Grid_pts file          = ./c3.gridpts.0
 Record size in doubles =  12289        No. of grid_pts per rec  =   3070
 Max. records in memory =     24        Max. recs in file   =    991831


           Memory utilization after 1st SCF pass: 
           Heap Space remaining (MW):       12.81            12810636
          Stack Space remaining (MW):       13.11            13106908

   convergence    iter        energy       DeltaE   RMS-Dens  Diis-err    time
 ---------------- ----- ----------------- --------- --------- ---------  ------
 d= 0,ls=0.0,diis     1   -113.6557925065 -1.53D+02  2.34D-02  3.63D-01     0.1
 d= 0,ls=0.0,diis     2   -113.6669338227 -1.11D-02  2.54D-02  1.95D-01     0.2
 d= 0,ls=0.0,diis     3   -113.6398911072  2.70D-02  1.73D-02  3.17D-01     0.2
 d= 0,ls=0.0,diis     4   -113.6910954795 -5.12D-02  4.49D-03  2.31D-02     0.3
 d= 0,ls=0.0,diis     5   -113.6944693243 -3.37D-03  1.18D-03  1.30D-03     0.3
 d= 0,ls=0.0,diis     6   -113.6946319258 -1.63D-04  8.00D-05  3.90D-06     0.4
 d= 0,ls=0.0,diis     7   -113.6946324704 -5.45D-07  1.12D-05  7.05D-08     0.4
 d= 0,ls=0.0,diis     8   -113.6946324800 -9.63D-09  4.83D-06  2.27D-09     0.5


         Total DFT energy =     -113.694632480030
      One electron energy =     -229.757459608570
           Coulomb energy =       92.426631727129
    Exchange-Corr. energy =      -16.117471383385
 Nuclear repulsion energy =       39.753666784796

 Numeric. integr. density =       17.999999784890

     Total iterative time =      0.4s



                  Occupations of the irreducible representations
                  ----------------------------------------------

                     irrep           alpha         beta
                     --------     --------     --------
                     a'                8.0          8.0
                     a"                1.0          1.0


                       DFT Final Molecular Orbital Analysis
                       ------------------------------------

 Vector    1  Occ=2.000000D+00  E=-1.002159D+01  Symmetry=a'
              MO Center= -4.2D-03, -1.2D+00, -3.6D-19, r^2= 5.6D-02
   Bfn.  Coefficient  Atom+Function         Bfn.  Coefficient  Atom+Function  
  ----- ------------  ---------------      ----- ------------  ---------------
    20      0.687666  3 C  s                 19     -0.357692  3 C  s          

 Vector    2  Occ=2.000000D+00  E=-1.000989D+01  Symmetry=a'
              MO Center= -4.3D-03,  1.2D+00,  8.0D-18, r^2= 5.7D-02
   Bfn.  Coefficient  Atom+Function         Bfn.  Coefficient  Atom+Function  
  ----- ------------  ---------------      ----- ------------  ---------------
     2      0.687844  1 C  s                  1     -0.357610  1 C  s          

 Vector    3  Occ=2.000000D+00  E=-9.943142D+00  Symmetry=a'
              MO Center=  8.5D-03,  8.1D-03, -3.1D-18, r^2= 2.8D-02
   Bfn.  Coefficient  Atom+Function         Bfn.  Coefficient  Atom+Function  
  ----- ------------  ---------------      ----- ------------  ---------------
    11      0.689804  2 C  s                 10     -0.358024  2 C  s          

 Vector    4  Occ=2.000000D+00  E=-8.021491D-01  Symmetry=a'
              MO Center=  1.1D-04,  3.2D-02,  1.0D-17, r^2= 9.7D-01
   Bfn.  Coefficient  Atom+Function         Bfn.  Coefficient  Atom+Function  
  ----- ------------  ---------------      ----- ------------  ---------------
    12      0.593356  2 C  s                  3      0.317257  1 C  s          
    21      0.292726  3 C  s                 11      0.184040  2 C  s          
     5     -0.160575  1 C  py         

 Vector    5  Occ=2.000000D+00  E=-7.047860D-01  Symmetry=a'
              MO Center=  3.8D-03, -3.6D-02, -3.1D-17, r^2= 1.0D+00
   Bfn.  Coefficient  Atom+Function         Bfn.  Coefficient  Atom+Function  
  ----- ------------  ---------------      ----- ------------  ---------------
    21     -0.567226  3 C  s                  3      0.544781  1 C  s          
    14      0.388781  2 C  py                23     -0.192209  3 C  py         
     5     -0.186600  1 C  py         

 Vector    6  Occ=2.000000D+00  E=-3.738955D-01  Symmetry=a"
              MO Center=  2.9D-03,  7.8D-03, -1.3D-18, r^2= 1.5D+00
   Bfn.  Coefficient  Atom+Function         Bfn.  Coefficient  Atom+Function  
  ----- ------------  ---------------      ----- ------------  ---------------
    15      0.383143  2 C  pz                18      0.365600  2 C  pz         
     6      0.260951  1 C  pz                24      0.257393  3 C  pz         
    27      0.160230  3 C  pz                 9      0.158493  1 C  pz         

 Vector    7  Occ=2.000000D+00  E=-3.738914D-01  Symmetry=a'
              MO Center=  7.2D-03,  7.8D-03,  4.0D-19, r^2= 1.5D+00
   Bfn.  Coefficient  Atom+Function         Bfn.  Coefficient  Atom+Function  
  ----- ------------  ---------------      ----- ------------  ---------------
    13      0.383130  2 C  px                16      0.365597  2 C  px         
     4      0.260925  1 C  px                22      0.257369  3 C  px         
    25      0.160227  3 C  px                 7      0.158488  1 C  px         

 Vector    8  Occ=2.000000D+00  E=-2.696835D-01  Symmetry=a'
              MO Center= -6.5D-03, -1.1D+00, -3.1D-17, r^2= 1.9D+00
   Bfn.  Coefficient  Atom+Function         Bfn.  Coefficient  Atom+Function  
  ----- ------------  ---------------      ----- ------------  ---------------
    21      0.718176  3 C  s                  3      0.484236  1 C  s          
    12     -0.373280  2 C  s                 23     -0.344211  3 C  py         
    26     -0.301919  3 C  py         

 Vector    9  Occ=2.000000D+00  E=-2.583472D-01  Symmetry=a'
              MO Center= -1.1D-02,  1.1D+00, -2.2D-17, r^2= 2.0D+00
   Bfn.  Coefficient  Atom+Function         Bfn.  Coefficient  Atom+Function  
  ----- ------------  ---------------      ----- ------------  ---------------
     3      0.526808  1 C  s                  8      0.395936  1 C  py         
     5      0.380323  1 C  py                26      0.257911  3 C  py         
    14     -0.244854  2 C  py                23      0.193325  3 C  py         
    17      0.173504  2 C  py         

 Vector   10  Occ=0.000000D+00  E=-1.801967D-01  Symmetry=a"
              MO Center= -4.3D-03, -4.9D-02, -1.2D-15, r^2= 2.5D+00
   Bfn.  Coefficient  Atom+Function         Bfn.  Coefficient  Atom+Function  
  ----- ------------  ---------------      ----- ------------  ---------------
    27     -0.467150  3 C  pz                 9      0.445612  1 C  pz         
    24     -0.403181  3 C  pz                 6      0.388330  1 C  pz         

 Vector   11  Occ=0.000000D+00  E=-1.801858D-01  Symmetry=a'
              MO Center= -1.3D-03, -4.9D-02,  1.3D-15, r^2= 2.5D+00
   Bfn.  Coefficient  Atom+Function         Bfn.  Coefficient  Atom+Function  
  ----- ------------  ---------------      ----- ------------  ---------------
    25     -0.467054  3 C  px                 7      0.445511  1 C  px         
    22     -0.403123  3 C  px                 4      0.388268  1 C  px         

 Vector   12  Occ=0.000000D+00  E= 8.200478D-02  Symmetry=a'
              MO Center=  1.1D-02,  4.4D-02,  1.7D-15, r^2= 2.3D+00
   Bfn.  Coefficient  Atom+Function         Bfn.  Coefficient  Atom+Function  
  ----- ------------  ---------------      ----- ------------  ---------------
    16      0.938460  2 C  px                 7     -0.685846  1 C  px         
    25     -0.649154  3 C  px                13      0.445915  2 C  px         
     4     -0.313827  1 C  px                22     -0.301256  3 C  px         

 Vector   13  Occ=0.000000D+00  E= 8.209606D-02  Symmetry=a"
              MO Center=  1.2D-03,  4.4D-02, -1.7D-15, r^2= 2.3D+00
   Bfn.  Coefficient  Atom+Function         Bfn.  Coefficient  Atom+Function  
  ----- ------------  ---------------      ----- ------------  ---------------
    18      0.938744  2 C  pz                 9     -0.685987  1 C  pz         
    27     -0.649280  3 C  pz                15      0.446008  2 C  pz         
     6     -0.313805  1 C  pz                24     -0.301236  3 C  pz         

 Vector   14  Occ=0.000000D+00  E= 3.906760D-01  Symmetry=a'
              MO Center= -1.4D-03, -2.3D-01, -5.5D-18, r^2= 3.6D+00
   Bfn.  Coefficient  Atom+Function         Bfn.  Coefficient  Atom+Function  
  ----- ------------  ---------------      ----- ------------  ---------------
    12      2.600419  2 C  s                 26     -1.179671  3 C  py         
    21     -1.163683  3 C  s                  8      0.978068  1 C  py         
     3     -0.849096  1 C  s                 11      0.212059  2 C  s          
    17     -0.195117  2 C  py                 5      0.166859  1 C  py         

 Vector   15  Occ=0.000000D+00  E= 4.331885D-01  Symmetry=a'
              MO Center= -1.2D-02,  2.1D-01, -1.7D-16, r^2= 5.1D+00
   Bfn.  Coefficient  Atom+Function         Bfn.  Coefficient  Atom+Function  
  ----- ------------  ---------------      ----- ------------  ---------------
    17      2.769061  2 C  py                 3     -2.381677  1 C  s          
    21      2.166235  3 C  s                  8      1.331403  1 C  py         
    26      1.154476  3 C  py                12      0.260233  2 C  s          
    23     -0.206374  3 C  py                 5     -0.199017  1 C  py         
     2     -0.160801  1 C  s          

 Vector   16  Occ=0.000000D+00  E= 5.621884D-01  Symmetry=a'
              MO Center= -1.6D-02,  4.0D-02, -2.3D-15, r^2= 2.5D+00
   Bfn.  Coefficient  Atom+Function         Bfn.  Coefficient  Atom+Function  
  ----- ------------  ---------------      ----- ------------  ---------------
    23     -0.740627  3 C  py                 5      0.736092  1 C  py         
     8     -0.571467  1 C  py                26      0.512942  3 C  py         
    17      0.327676  2 C  py                 3     -0.291917  1 C  s          

 Vector   17  Occ=0.000000D+00  E= 5.911373D-01  Symmetry=a"
              MO Center= -5.6D-04, -1.0D-02, -2.5D-15, r^2= 2.4D+00
   Bfn.  Coefficient  Atom+Function         Bfn.  Coefficient  Atom+Function  
  ----- ------------  ---------------      ----- ------------  ---------------
    24      0.580666  3 C  pz                 6      0.570676  1 C  pz         
    15      0.544160  2 C  pz                27     -0.471859  3 C  pz         
     9     -0.466087  1 C  pz                18     -0.355888  2 C  pz         

 Vector   18  Occ=0.000000D+00  E= 5.911738D-01  Symmetry=a'
              MO Center=  2.7D-03, -9.6D-03,  4.6D-15, r^2= 2.4D+00
   Bfn.  Coefficient  Atom+Function         Bfn.  Coefficient  Atom+Function  
  ----- ------------  ---------------      ----- ------------  ---------------
    22      0.580426  3 C  px                 4      0.570619  1 C  px         
    13      0.544142  2 C  px                25     -0.471979  3 C  px         
     7     -0.466262  1 C  px                16     -0.355342  2 C  px         

 Vector   19  Occ=0.000000D+00  E= 6.269852D-01  Symmetry=a'
              MO Center=  2.6D-02, -6.6D-02, -1.0D-14, r^2= 2.4D+00
   Bfn.  Coefficient  Atom+Function         Bfn.  Coefficient  Atom+Function  
  ----- ------------  ---------------      ----- ------------  ---------------
    17      2.151076  2 C  py                21      1.135261  3 C  s          
     3     -1.056473  1 C  s                 14     -0.769046  2 C  py         
    26     -0.381903  3 C  py                 8     -0.301716  1 C  py         
    23      0.266777  3 C  py         


 center of mass
 --------------
 x =   0.00000000 y =   0.00000000 z =   0.00000000

 moments of inertia (a.u.)
 ------------------
         123.022882548242           0.000000000000           0.000000000000
           0.000000000000           0.004660150735           0.000000000000
           0.000000000000           0.000000000000         123.027542698977

     Multipole analysis of the density
     ---------------------------------

     L   x y z        total         alpha         beta         nuclear
     -   - - -        -----         -----         ----         -------
     0   0 0 0     -0.000000     -9.000000     -9.000000     18.000000

     1   1 0 0      0.011706      0.005853      0.005853      0.000000
     1   0 1 0     -0.049677     -0.024839     -0.024839      0.000000
     1   0 0 1      0.000000      0.000000      0.000000      0.000000

     2   2 0 0    -11.513624     -5.757977     -5.757977      0.002330
     2   1 1 0      0.001277      0.000639      0.000639     -0.000000
     2   1 0 1      0.000000      0.000000      0.000000      0.000000
     2   0 2 0    -16.517599    -39.014520    -39.014520     61.511441
     2   0 1 1      0.000000      0.000000      0.000000      0.000000
     2   0 0 2    -11.512930     -5.756465     -5.756465      0.000000


 **** WARNING Zero Coefficient **** on atom "               C"
 angular momentum value: 0  standard basis set name: "pcS-0"
 input line that generated warning:
    64:       0.446509E+03           0.399403E-01           0.000000E+00
  

 **** WARNING Zero Coefficient **** on atom "               C"
 angular momentum value: 0  standard basis set name: "pcS-0"
 input line that generated warning:
    67:       0.393876E+01           0.000000E+00          -0.500000E+00
  

            General Information
            -------------------
          SCF calculation type: DFT
          Wavefunction type:  closed shell.
          No. of atoms     :     3
          No. of electrons :    18
           Alpha electrons :     9
            Beta electrons :     9
          Charge           :     0
          Spin multiplicity:     1
          Use of symmetry is: on ; symmetry adaption is: on 
          Maximum number of iterations: ***
          This is a Direct SCF calculation.
          AO basis - number of functions:    27
                     number of shells:    15
          Convergence on energy requested: 1.00D-06
          Convergence on density requested: 1.00D-05
          Convergence on gradient requested: 5.00D-04

              XC Information
              --------------
                    Becke 1988 Exchange Functional  1.000          
              Lee-Yang-Parr Correlation Functional  1.000          

             Grid Information
             ----------------
          Grid used for XC integration:  medium    
          Radial quadrature: Mura-Knowles        
          Angular quadrature: Lebedev. 
          Tag              B.-S. Rad. Rad. Pts. Rad. Cut. Ang. Pts.
          ---              ---------- --------- --------- ---------
          C                   0.70       49           7.0       434
          Grid pruning is: on 
          Number of quadrature shells:   147
          Spatial weights used:  Erf1

          Convergence Information
          -----------------------
          Convergence aids based upon iterative change in 
          total energy or number of iterations. 
          Levelshifting, if invoked, occurs when the 
          HOMO/LUMO gap drops below (HL_TOL): 1.00D-02
          DIIS, if invoked, will attempt to extrapolate 
          using up to (NFOCK): 10 stored Fock matrices.

                    Damping( 0%)  Levelshifting(0.0)       DIIS
                  --------------- ------------------- ---------------
          dE  on:    start             N/A                start   
          dE off:    2 iters           N/A              *** iters 


      Screening Tolerance Information
      -------------------------------
          Density screening/tol_rho: 1.00D-10
          AO Gaussian exp screening on grid/accAOfunc:  14
          CD Gaussian exp screening on grid/accCDfunc:  20
          XC Gaussian exp screening on grid/accXCfunc:  20
          Schwarz screening/accCoul: 1.00D-08



                            NWChem DFT Gradient Module
                            --------------------------


                                TDDFT c3 BLYP/pcs0



  charge          =   0.00
  wavefunction    = closed shell

  Using symmetry


                         DFT ENERGY GRADIENTS

    atom               coordinates                        gradient
                 x          y          z           x          y          z
   1 C      -0.008125   2.256492   0.000000    0.001954  -0.223122   0.000000
   2 C       0.016090   0.015054   0.000000   -0.003266   0.055724   0.000000
   3 C      -0.007965  -2.271547   0.000000    0.001313   0.167399   0.000000

                 ----------------------------------------
                 |  Time  |  1-e(secs)   |  2-e(secs)   |
                 ----------------------------------------
                 |  CPU   |       0.00   |       0.07   |
                 ----------------------------------------
                 |  WALL  |       0.00   |       0.06   |
                 ----------------------------------------

@ Step       Energy      Delta E   Gmax     Grms     Xrms     Xmax   Walltime
@ ---- ---------------- -------- -------- -------- -------- -------- --------
@    0    -113.69463248  0.0D+00  0.18068  0.12918  0.00000  0.00000      0.6
                                                                    



                                Z-matrix (autoz)
                                -------- 

 Units are Angstrom for bonds and degrees for angles

      Type          Name      I     J     K     L     M      Value     Gradient
      ----------- --------  ----- ----- ----- ----- ----- ---------- ----------
    1 Stretch                  1     2                       1.18619   -0.18068
    2 Stretch                  1     3                       2.39614   -0.04245
    3 Stretch                  2     3                       1.21008   -0.12496

 Restricting large step in mode    1 eval= 6.8D-02 step= 6.2D-01 new= 3.0D-01
 Restricting overall step due to large component. alpha=  1.00

                                 NWChem DFT Module
                                 -----------------


                                TDDFT c3 BLYP/pcs0



 **** WARNING Zero Coefficient **** on atom "               C"
 angular momentum value: 0  standard basis set name: "pcS-0"
 input line that generated warning:
    64:       0.446509E+03           0.399403E-01           0.000000E+00
  

 **** WARNING Zero Coefficient **** on atom "               C"
 angular momentum value: 0  standard basis set name: "pcS-0"
 input line that generated warning:
    67:       0.393876E+01           0.000000E+00          -0.500000E+00
  


 Summary of "ao basis" -> "ao basis" (spherical)
 ------------------------------------------------------------------------------
       Tag                 Description            Shells   Functions and Types
 ---------------- ------------------------------  ------  ---------------------
 C                           pcS-0                   5        9   3s2p


      Symmetry analysis of basis
      --------------------------

        a'         21
        a"          6

  Caching 1-el integrals 

            General Information
            -------------------
          SCF calculation type: DFT
          Wavefunction type:  closed shell.
          No. of atoms     :     3
          No. of electrons :    18
           Alpha electrons :     9
            Beta electrons :     9
          Charge           :     0
          Spin multiplicity:     1
          Use of symmetry is: on ; symmetry adaption is: on 
          Maximum number of iterations: ***
          This is a Direct SCF calculation.
          AO basis - number of functions:    27
                     number of shells:    15
          Convergence on energy requested: 1.00D-06
          Convergence on density requested: 1.00D-05
          Convergence on gradient requested: 5.00D-04

              XC Information
              --------------
                    Becke 1988 Exchange Functional  1.000          
              Lee-Yang-Parr Correlation Functional  1.000          

             Grid Information
             ----------------
          Grid used for XC integration:  medium    
          Radial quadrature: Mura-Knowles        
          Angular quadrature: Lebedev. 
          Tag              B.-S. Rad. Rad. Pts. Rad. Cut. Ang. Pts.
          ---              ---------- --------- --------- ---------
          C                   0.70       49           8.0       434
          Grid pruning is: on 
          Number of quadrature shells:   147
          Spatial weights used:  Erf1

          Convergence Information
          -----------------------
          Convergence aids based upon iterative change in 
          total energy or number of iterations. 
          Levelshifting, if invoked, occurs when the 
          HOMO/LUMO gap drops below (HL_TOL): 1.00D-02
          DIIS, if invoked, will attempt to extrapolate 
          using up to (NFOCK): 10 stored Fock matrices.

                    Damping( 0%)  Levelshifting(0.0)       DIIS
                  --------------- ------------------- ---------------
          dE  on:    start             N/A                start   
          dE off:    2 iters           N/A              *** iters 


      Screening Tolerance Information
      -------------------------------
          Density screening/tol_rho: 1.00D-10
          AO Gaussian exp screening on grid/accAOfunc:  14
          CD Gaussian exp screening on grid/accCDfunc:  20
          XC Gaussian exp screening on grid/accXCfunc:  20
          Schwarz screening/accCoul: 1.00D-08


 Loading old vectors from job with title :

TDDFT c3 BLYP/pcs0


      Symmetry analysis of molecular orbitals - initial
      -------------------------------------------------

  Numbering of irreducible representations: 

     1 a'          2 a"      

  Orbital symmetries:

     1 a'          2 a'          3 a'          4 a'          5 a'      
     6 a"          7 a'          8 a'          9 a'         10 a"      
    11 a'         12 a'         13 a"         14 a'         15 a'      
    16 a'         17 a"         18 a'         19 a'      

   Time after variat. SCF:      0.7
   Time prior to 1st pass:      0.7

 Grid_pts file          = ./c3.gridpts.0
 Record size in doubles =  12289        No. of grid_pts per rec  =   3070
 Max. records in memory =     24        Max. recs in file   =    991831


           Memory utilization after 1st SCF pass: 
           Heap Space remaining (MW):       12.81            12810636
          Stack Space remaining (MW):       13.11            13106908

   convergence    iter        energy       DeltaE   RMS-Dens  Diis-err    time
 ---------------- ----- ----------------- --------- --------- ---------  ------
 d= 0,ls=0.0,diis     1   -113.6658741959 -1.50D+02  4.03D-02  3.05D-01     0.7
 d= 0,ls=0.0,diis     2   -113.7142864633 -4.84D-02  2.57D-02  7.35D-02     0.8
 d= 0,ls=0.0,diis     3   -113.7093632053  4.92D-03  1.23D-02  1.29D-01     0.8
 d= 0,ls=0.0,diis     4   -113.7253786711 -1.60D-02  5.36D-03  3.53D-02     0.9
 d= 0,ls=0.0,diis     5   -113.7313655023 -5.99D-03  2.20D-03  3.23D-03     0.9
 d= 0,ls=0.0,diis     6   -113.7319021627 -5.37D-04  6.57D-04  1.69D-04     1.0
 d= 0,ls=0.0,diis     7   -113.7319373053 -3.51D-05  1.60D-04  7.29D-06     1.0
 d= 0,ls=0.0,diis     8   -113.7319392693 -1.96D-06  1.59D-05  4.65D-08     1.1
 d= 0,ls=0.0,diis     9   -113.7319392826 -1.33D-08  9.08D-07  1.07D-09     1.1


         Total DFT energy =     -113.731939282602
      One electron energy =     -223.699206605695
           Coulomb energy =       89.329791810365
    Exchange-Corr. energy =      -15.955530798040
 Nuclear repulsion energy =       36.593006310768

 Numeric. integr. density =       18.000000779326

     Total iterative time =      0.4s



                  Occupations of the irreducible representations
                  ----------------------------------------------

                     irrep           alpha         beta
                     --------     --------     --------
                     a'                8.0          8.0
                     a"                1.0          1.0


                       DFT Final Molecular Orbital Analysis
                       ------------------------------------

 Vector    1  Occ=2.000000D+00  E=-1.003576D+01  Symmetry=a'
              MO Center= -9.6D-02,  6.1D-01,  7.5D-19, r^2= 1.3D+00
   Bfn.  Coefficient  Atom+Function         Bfn.  Coefficient  Atom+Function  
  ----- ------------  ---------------      ----- ------------  ---------------
     2      0.591652  1 C  s                 20     -0.352665  3 C  s          
     1     -0.307952  1 C  s                 19      0.184051  3 C  s          

 Vector    2  Occ=2.000000D+00  E=-1.003422D+01  Symmetry=a'
              MO Center= -9.1D-02, -6.1D-01, -1.0D-17, r^2= 1.3D+00
   Bfn.  Coefficient  Atom+Function         Bfn.  Coefficient  Atom+Function  
  ----- ------------  ---------------      ----- ------------  ---------------
    20      0.593049  3 C  s                  2      0.355011  1 C  s          
    19     -0.307769  3 C  s                  1     -0.183747  1 C  s          

 Vector    3  Occ=2.000000D+00  E=-9.969059D+00  Symmetry=a'
              MO Center=  1.9D-01,  1.8D-04, -9.7D-18, r^2= 2.8D-02
   Bfn.  Coefficient  Atom+Function         Bfn.  Coefficient  Atom+Function  
  ----- ------------  ---------------      ----- ------------  ---------------
    11      0.689950  2 C  s                 10     -0.358366  2 C  s          

 Vector    4  Occ=2.000000D+00  E=-7.745044D-01  Symmetry=a'
              MO Center=  1.6D-02, -2.7D-03, -3.0D-17, r^2= 1.0D+00
   Bfn.  Coefficient  Atom+Function         Bfn.  Coefficient  Atom+Function  
  ----- ------------  ---------------      ----- ------------  ---------------
    12      0.590675  2 C  s                 21      0.322933  3 C  s          
     3      0.321184  1 C  s                 11      0.173244  2 C  s          

 Vector    5  Occ=2.000000D+00  E=-6.651613D-01  Symmetry=a'
              MO Center=  6.6D-02,  3.4D-03, -3.0D-17, r^2= 1.2D+00
   Bfn.  Coefficient  Atom+Function         Bfn.  Coefficient  Atom+Function  
  ----- ------------  ---------------      ----- ------------  ---------------
     3      0.536673  1 C  s                 21     -0.534761  3 C  s          
    14      0.352036  2 C  py                 5     -0.168646  1 C  py         
    23     -0.168678  3 C  py         

 Vector    6  Occ=2.000000D+00  E=-3.436764D-01  Symmetry=a"
              MO Center=  5.8D-02, -3.3D-04,  6.9D-19, r^2= 1.7D+00
   Bfn.  Coefficient  Atom+Function         Bfn.  Coefficient  Atom+Function  
  ----- ------------  ---------------      ----- ------------  ---------------
    15      0.367600  2 C  pz                18      0.366674  2 C  pz         
     6      0.256034  1 C  pz                24      0.256255  3 C  pz         
     9      0.189054  1 C  pz                27      0.188979  3 C  pz         

 Vector    7  Occ=2.000000D+00  E=-3.433076D-01  Symmetry=a'
              MO Center=  1.2D-01,  4.1D-05,  6.2D-17, r^2= 1.7D+00
   Bfn.  Coefficient  Atom+Function         Bfn.  Coefficient  Atom+Function  
  ----- ------------  ---------------      ----- ------------  ---------------
    16      0.363781  2 C  px                13      0.361076  2 C  px         
     4      0.245206  1 C  px                22      0.245784  3 C  px         
     7      0.185699  1 C  px                25      0.185787  3 C  px         
    12      0.164547  2 C  s          

 Vector    8  Occ=2.000000D+00  E=-2.889241D-01  Symmetry=a'
              MO Center= -9.4D-02,  3.0D-02,  2.2D-16, r^2= 3.2D+00
   Bfn.  Coefficient  Atom+Function         Bfn.  Coefficient  Atom+Function  
  ----- ------------  ---------------      ----- ------------  ---------------
     3      0.650468  1 C  s                 21      0.642918  3 C  s          
    12     -0.415967  2 C  s                  5      0.230071  1 C  py         
    23     -0.224170  3 C  py                 8      0.179460  1 C  py         
    26     -0.173165  3 C  py         

 Vector    9  Occ=2.000000D+00  E=-2.645033D-01  Symmetry=a'
              MO Center= -2.2D-01, -3.2D-02,  5.9D-16, r^2= 3.3D+00
   Bfn.  Coefficient  Atom+Function         Bfn.  Coefficient  Atom+Function  
  ----- ------------  ---------------      ----- ------------  ---------------
    21     -0.379628  3 C  s                  3      0.366443  1 C  s          
    26      0.322615  3 C  py                 8      0.318136  1 C  py         
    23      0.293282  3 C  py                 5      0.287710  1 C  py         
    14     -0.276969  2 C  py         

 Vector   10  Occ=0.000000D+00  E=-1.845262D-01  Symmetry=a"
              MO Center= -9.3D-02,  3.5D-03, -2.0D-15, r^2= 2.7D+00
   Bfn.  Coefficient  Atom+Function         Bfn.  Coefficient  Atom+Function  
  ----- ------------  ---------------      ----- ------------  ---------------
     9      0.452842  1 C  pz                27     -0.451334  3 C  pz         
     6      0.392910  1 C  pz                24     -0.391766  3 C  pz         

 Vector   11  Occ=0.000000D+00  E=-1.807953D-01  Symmetry=a'
              MO Center= -4.4D-02,  3.7D-03,  1.5D-15, r^2= 2.7D+00
   Bfn.  Coefficient  Atom+Function         Bfn.  Coefficient  Atom+Function  
  ----- ------------  ---------------      ----- ------------  ---------------
     7      0.416595  1 C  px                25     -0.416457  3 C  px         
     4      0.369107  1 C  px                22     -0.369077  3 C  px         
     8      0.177229  1 C  py                26      0.173455  3 C  py         

 Vector   12  Occ=0.000000D+00  E= 1.821097D-03  Symmetry=a'
              MO Center=  1.6D-01, -2.4D-03, -1.7D-16, r^2= 2.2D+00
   Bfn.  Coefficient  Atom+Function         Bfn.  Coefficient  Atom+Function  
  ----- ------------  ---------------      ----- ------------  ---------------
    16      0.715611  2 C  px                 7     -0.532330  1 C  px         
    25     -0.534690  3 C  px                13      0.408882  2 C  px         
     4     -0.321638  1 C  px                22     -0.322158  3 C  px         
    12      0.318973  2 C  s          

 Vector   13  Occ=0.000000D+00  E= 2.776118D-02  Symmetry=a"
              MO Center=  3.6D-02, -3.2D-03,  2.1D-16, r^2= 2.2D+00
   Bfn.  Coefficient  Atom+Function         Bfn.  Coefficient  Atom+Function  
  ----- ------------  ---------------      ----- ------------  ---------------
    18      0.794729  2 C  pz                 9     -0.557952  1 C  pz         
    27     -0.560369  3 C  pz                15      0.439488  2 C  pz         
     6     -0.314380  1 C  pz                24     -0.315430  3 C  pz         

 Vector   14  Occ=0.000000D+00  E= 3.069877D-01  Symmetry=a'
              MO Center= -3.3D-02,  8.9D-03,  9.4D-17, r^2= 2.9D+00
   Bfn.  Coefficient  Atom+Function         Bfn.  Coefficient  Atom+Function  
  ----- ------------  ---------------      ----- ------------  ---------------
    12      2.100703  2 C  s                  8      0.858510  1 C  py         
    26     -0.850826  3 C  py                 3     -0.835809  1 C  s          
    21     -0.824504  3 C  s                 16     -0.479718  2 C  px         
     5      0.292751  1 C  py                23     -0.292096  3 C  py         
    11      0.214974  2 C  s          

 Vector   15  Occ=0.000000D+00  E= 4.109727D-01  Symmetry=a'
              MO Center= -1.9D-01, -1.1D-02,  1.7D-16, r^2= 5.2D+00
   Bfn.  Coefficient  Atom+Function         Bfn.  Coefficient  Atom+Function  
  ----- ------------  ---------------      ----- ------------  ---------------
    17      2.500928  2 C  py                21      1.946950  3 C  s          
     3     -1.936338  1 C  s                 26      1.209234  3 C  py         
     8      1.197830  1 C  py                 7     -0.439184  1 C  px         
    25      0.430814  3 C  px                14      0.239076  2 C  py         
    20      0.151348  3 C  s                  2     -0.150423  1 C  s          

 Vector   16  Occ=0.000000D+00  E= 5.665252D-01  Symmetry=a'
              MO Center= -2.0D-01,  2.3D-03,  1.6D-15, r^2= 3.5D+00
   Bfn.  Coefficient  Atom+Function         Bfn.  Coefficient  Atom+Function  
  ----- ------------  ---------------      ----- ------------  ---------------
     8      0.764238  1 C  py                26     -0.762622  3 C  py         
     5     -0.684522  1 C  py                23      0.680991  3 C  py         
    12      0.585819  2 C  s          

 Vector   17  Occ=0.000000D+00  E= 6.123885D-01  Symmetry=a"
              MO Center= -2.0D-02,  2.3D-03, -6.0D-16, r^2= 2.6D+00
   Bfn.  Coefficient  Atom+Function         Bfn.  Coefficient  Atom+Function  
  ----- ------------  ---------------      ----- ------------  ---------------
     6      0.588000  1 C  pz                24      0.586371  3 C  pz         
    15      0.558334  2 C  pz                 9     -0.501422  1 C  pz         
    27     -0.499994  3 C  pz                18     -0.308410  2 C  pz         

 Vector   18  Occ=0.000000D+00  E= 6.201520D-01  Symmetry=a'
              MO Center= -1.7D-02, -2.6D-03, -1.9D-17, r^2= 2.7D+00
   Bfn.  Coefficient  Atom+Function         Bfn.  Coefficient  Atom+Function  
  ----- ------------  ---------------      ----- ------------  ---------------
     4      0.574374  1 C  px                13      0.572931  2 C  px         
    22      0.574441  3 C  px                 7     -0.510370  1 C  px         
    25     -0.508590  3 C  px                16     -0.314204  2 C  px         
    12      0.221481  2 C  s                 26     -0.168221  3 C  py         
     8      0.165587  1 C  py         

 Vector   19  Occ=0.000000D+00  E= 6.435188D-01  Symmetry=a'
              MO Center=  4.3D-01,  8.9D-03,  2.1D-15, r^2= 2.2D+00
   Bfn.  Coefficient  Atom+Function         Bfn.  Coefficient  Atom+Function  
  ----- ------------  ---------------      ----- ------------  ---------------
    17      1.561504  2 C  py                14     -0.769440  2 C  py         
     3     -0.740167  1 C  s                 21      0.740474  3 C  s          
     4     -0.393747  1 C  px                22      0.388604  3 C  px         
     7      0.286572  1 C  px                25     -0.280658  3 C  px         


 center of mass
 --------------
 x =   0.00000000 y =   0.00000000 z =   0.00000000

 moments of inertia (a.u.)
 ------------------
         139.857264257781           0.586750415655           0.000000000000
           0.586750415655           2.234181579316           0.000000000000
           0.000000000000           0.000000000000         142.091445837097

     Multipole analysis of the density
     ---------------------------------

     L   x y z        total         alpha         beta         nuclear
     -   - - -        -----         -----         ----         -------
     0   0 0 0     -0.000000     -9.000000     -9.000000     18.000000

     1   1 0 0      0.178953      0.089476      0.089476      0.000000
     1   0 1 0      0.003967      0.001984      0.001984      0.000000
     1   0 0 1      0.000000      0.000000      0.000000      0.000000

     2   2 0 0    -12.165703     -6.641397     -6.641397      1.117091
     2   1 1 0      0.015085      0.154230      0.154230     -0.293375
     2   1 0 1      0.000000      0.000000      0.000000      0.000000
     2   0 2 0    -16.071388    -43.000010    -43.000010     69.928632
     2   0 1 1      0.000000      0.000000      0.000000      0.000000
     2   0 0 2    -11.917848     -5.958924     -5.958924      0.000000

 Line search: 
     step= 1.00 grad=-7.7D-02 hess= 4.0D-02 energy=   -113.731939 mode=accept  
 new step= 1.00                   predicted energy=   -113.731939

          --------
          Step   1
          --------


                         Geometry "geometry" -> "geometry"
                         ---------------------------------

 Output coordinates in angstroms (scale by  1.889725989 to convert to a.u.)

  No.       Tag          Charge          X              Y              Z
 ---- ---------------- ---------- -------------- -------------- --------------
    1 C                    6.0000    -0.09854461     1.27734003     0.00000000
    2 C                    6.0000     0.18633007     0.00018549     0.00000000
    3 C                    6.0000    -0.08778546    -1.27752552     0.00000000

      Atomic Mass 
      ----------- 

      C                 12.000000


 Effective nuclear repulsion energy (a.u.)      36.5930063108

            Nuclear Dipole moment (a.u.) 
            ----------------------------
        X                 Y               Z
 ---------------- ---------------- ----------------
     0.0000000000     0.0000000000     0.0000000000

      Symmetry information
      --------------------

 Group name             Cs        
 Group number              2
 Group order               2
 No. of unique centers     3

      Symmetry unique atoms

     1    2    3


                                 NWChem DFT Module
                                 -----------------


                                TDDFT c3 BLYP/pcs0



 **** WARNING Zero Coefficient **** on atom "               C"
 angular momentum value: 0  standard basis set name: "pcS-0"
 input line that generated warning:
    64:       0.446509E+03           0.399403E-01           0.000000E+00
  

 **** WARNING Zero Coefficient **** on atom "               C"
 angular momentum value: 0  standard basis set name: "pcS-0"
 input line that generated warning:
    67:       0.393876E+01           0.000000E+00          -0.500000E+00
  


 Summary of "ao basis" -> "ao basis" (spherical)
 ------------------------------------------------------------------------------
       Tag                 Description            Shells   Functions and Types
 ---------------- ------------------------------  ------  ---------------------
 C                           pcS-0                   5        9   3s2p


      Symmetry analysis of basis
      --------------------------

        a'         21
        a"          6


  The DFT is already converged 

         Total DFT energy =   -113.731939282602


 **** WARNING Zero Coefficient **** on atom "               C"
 angular momentum value: 0  standard basis set name: "pcS-0"
 input line that generated warning:
    64:       0.446509E+03           0.399403E-01           0.000000E+00
  

 **** WARNING Zero Coefficient **** on atom "               C"
 angular momentum value: 0  standard basis set name: "pcS-0"
 input line that generated warning:
    67:       0.393876E+01           0.000000E+00          -0.500000E+00
  

            General Information
            -------------------
          SCF calculation type: DFT
          Wavefunction type:  closed shell.
          No. of atoms     :     3
          No. of electrons :    18
           Alpha electrons :     9
            Beta electrons :     9
          Charge           :     0
          Spin multiplicity:     1
          Use of symmetry is: on ; symmetry adaption is: on 
          Maximum number of iterations: ***
          This is a Direct SCF calculation.
          AO basis - number of functions:    27
                     number of shells:    15
          Convergence on energy requested: 1.00D-06
          Convergence on density requested: 1.00D-05
          Convergence on gradient requested: 5.00D-04

              XC Information
              --------------
                    Becke 1988 Exchange Functional  1.000          
              Lee-Yang-Parr Correlation Functional  1.000          

             Grid Information
             ----------------
          Grid used for XC integration:  medium    
          Radial quadrature: Mura-Knowles        
          Angular quadrature: Lebedev. 
          Tag              B.-S. Rad. Rad. Pts. Rad. Cut. Ang. Pts.
          ---              ---------- --------- --------- ---------
          C                   0.70       49           8.0       434
          Grid pruning is: on 
          Number of quadrature shells:   147
          Spatial weights used:  Erf1

          Convergence Information
          -----------------------
          Convergence aids based upon iterative change in 
          total energy or number of iterations. 
          Levelshifting, if invoked, occurs when the 
          HOMO/LUMO gap drops below (HL_TOL): 1.00D-02
          DIIS, if invoked, will attempt to extrapolate 
          using up to (NFOCK): 10 stored Fock matrices.

                    Damping( 0%)  Levelshifting(0.0)       DIIS
                  --------------- ------------------- ---------------
          dE  on:    start             N/A                start   
          dE off:    2 iters           N/A              *** iters 


      Screening Tolerance Information
      -------------------------------
          Density screening/tol_rho: 1.00D-10
          AO Gaussian exp screening on grid/accAOfunc:  14
          CD Gaussian exp screening on grid/accCDfunc:  20
          XC Gaussian exp screening on grid/accXCfunc:  20
          Schwarz screening/accCoul: 1.00D-08



                            NWChem DFT Gradient Module
                            --------------------------


                                TDDFT c3 BLYP/pcs0



  charge          =   0.00
  wavefunction    = closed shell

  Using symmetry


                         DFT ENERGY GRADIENTS

    atom               coordinates                        gradient
                 x          y          z           x          y          z
   1 C      -0.186222   2.413823   0.000000   -0.000968  -0.017774   0.000000
   2 C       0.352113   0.000351   0.000000    0.001609  -0.002221   0.000000
   3 C      -0.165890  -2.414173   0.000000   -0.000641   0.019995   0.000000

                 ----------------------------------------
                 |  Time  |  1-e(secs)   |  2-e(secs)   |
                 ----------------------------------------
                 |  CPU   |       0.00   |       0.08   |
                 ----------------------------------------
                 |  WALL  |       0.00   |       0.06   |
                 ----------------------------------------

  Step       Energy      Delta E   Gmax     Grms     Xrms     Xmax   Walltime
  ---- ---------------- -------- -------- -------- -------- -------- --------
@    1    -113.73193928 -3.7D-02  0.02254  0.01340  0.10427  0.18704      1.2
                                                                    



                                Z-matrix (autoz)
                                -------- 

 Units are Angstrom for bonds and degrees for angles

      Type          Name      I     J     K     L     M      Value     Gradient
      ----------- --------  ----- ----- ----- ----- ----- ---------- ----------
    1 Stretch                  1     2                       1.30854    0.00488
    2 Stretch                  1     3                       2.55489   -0.02254
    3 Stretch                  2     3                       1.30678    0.00260

 Restricting large step in mode    1 eval= 6.7D-02 step= 3.3D-01 new= 3.0D-01
 Restricting overall step due to large component. alpha=  1.00

                                 NWChem DFT Module
                                 -----------------


                                TDDFT c3 BLYP/pcs0



 **** WARNING Zero Coefficient **** on atom "               C"
 angular momentum value: 0  standard basis set name: "pcS-0"
 input line that generated warning:
    64:       0.446509E+03           0.399403E-01           0.000000E+00
  

 **** WARNING Zero Coefficient **** on atom "               C"
 angular momentum value: 0  standard basis set name: "pcS-0"
 input line that generated warning:
    67:       0.393876E+01           0.000000E+00          -0.500000E+00
  


 Summary of "ao basis" -> "ao basis" (spherical)
 ------------------------------------------------------------------------------
       Tag                 Description            Shells   Functions and Types
 ---------------- ------------------------------  ------  ---------------------
 C                           pcS-0                   5        9   3s2p


      Symmetry analysis of basis
      --------------------------

        a'         21
        a"          6

  Caching 1-el integrals 

            General Information
            -------------------
          SCF calculation type: DFT
          Wavefunction type:  closed shell.
          No. of atoms     :     3
          No. of electrons :    18
           Alpha electrons :     9
            Beta electrons :     9
          Charge           :     0
          Spin multiplicity:     1
          Use of symmetry is: on ; symmetry adaption is: on 
          Maximum number of iterations: ***
          This is a Direct SCF calculation.
          AO basis - number of functions:    27
                     number of shells:    15
          Convergence on energy requested: 1.00D-06
          Convergence on density requested: 1.00D-05
          Convergence on gradient requested: 5.00D-04

              XC Information
              --------------
                    Becke 1988 Exchange Functional  1.000          
              Lee-Yang-Parr Correlation Functional  1.000          

             Grid Information
             ----------------
          Grid used for XC integration:  medium    
          Radial quadrature: Mura-Knowles        
          Angular quadrature: Lebedev. 
          Tag              B.-S. Rad. Rad. Pts. Rad. Cut. Ang. Pts.
          ---              ---------- --------- --------- ---------
          C                   0.70       49           8.0       434
          Grid pruning is: on 
          Number of quadrature shells:   147
          Spatial weights used:  Erf1

          Convergence Information
          -----------------------
          Convergence aids based upon iterative change in 
          total energy or number of iterations. 
          Levelshifting, if invoked, occurs when the 
          HOMO/LUMO gap drops below (HL_TOL): 1.00D-02
          DIIS, if invoked, will attempt to extrapolate 
          using up to (NFOCK): 10 stored Fock matrices.

                    Damping( 0%)  Levelshifting(0.0)       DIIS
                  --------------- ------------------- ---------------
          dE  on:    start             N/A                start   
          dE off:    2 iters           N/A              *** iters 


      Screening Tolerance Information
      -------------------------------
          Density screening/tol_rho: 1.00D-10
          AO Gaussian exp screening on grid/accAOfunc:  14
          CD Gaussian exp screening on grid/accCDfunc:  20
          XC Gaussian exp screening on grid/accXCfunc:  20
          Schwarz screening/accCoul: 1.00D-08


 Loading old vectors from job with title :

TDDFT c3 BLYP/pcs0


      Symmetry analysis of molecular orbitals - initial
      -------------------------------------------------

  Numbering of irreducible representations: 

     1 a'          2 a"      

  Orbital symmetries:

     1 a'          2 a'          3 a'          4 a'          5 a'      
     6 a"          7 a'          8 a'          9 a'         10 a"      
    11 a'         12 a'         13 a"         14 a'         15 a'      
    16 a'         17 a"         18 a'         19 a'      

   Time after variat. SCF:      1.3
   Time prior to 1st pass:      1.3

 Grid_pts file          = ./c3.gridpts.0
 Record size in doubles =  12289        No. of grid_pts per rec  =   3070
 Max. records in memory =     24        Max. recs in file   =    991831


           Memory utilization after 1st SCF pass: 
           Heap Space remaining (MW):       12.81            12810636
          Stack Space remaining (MW):       13.11            13106908

   convergence    iter        energy       DeltaE   RMS-Dens  Diis-err    time
 ---------------- ----- ----------------- --------- --------- ---------  ------
 d= 0,ls=0.0,diis     1   -113.6415088777 -1.49D+02  4.68D-02  3.07D-01     1.3
 d= 0,ls=0.0,diis     2   -113.7144094771 -7.29D-02  3.16D-02  3.80D-02     1.4
 d= 0,ls=0.0,diis     3   -113.7134512962  9.58D-04  1.40D-02  5.50D-02     1.4
 d= 0,ls=0.0,diis     4   -113.7306147387 -1.72D-02  2.89D-03  5.95D-03     1.5
 d= 0,ls=0.0,diis     5   -113.7314787689 -8.64D-04  1.16D-03  1.04D-03     1.5
 d= 0,ls=0.0,diis     6   -113.7315679101 -8.91D-05  5.20D-04  5.66D-04     1.6
 d= 0,ls=0.0,diis     7   -113.7316655504 -9.76D-05  4.62D-05  9.90D-07     1.6
 d= 0,ls=0.0,diis     8   -113.7316657442 -1.94D-07  1.04D-05  2.91D-08     1.6
 d= 0,ls=0.0,diis     9   -113.7316657491 -4.90D-09  3.38D-06  1.80D-09     1.7


         Total DFT energy =     -113.731665749056
      One electron energy =     -220.662956659152
           Coulomb energy =       87.785577309088
    Exchange-Corr. energy =      -15.887838164562
 Nuclear repulsion energy =       35.033551765570

 Numeric. integr. density =       18.000000503561

     Total iterative time =      0.4s



                  Occupations of the irreducible representations
                  ----------------------------------------------

                     irrep           alpha         beta
                     --------     --------     --------
                     a'                8.0          8.0
                     a"                1.0          1.0


                       DFT Final Molecular Orbital Analysis
                       ------------------------------------

 Vector    1  Occ=2.000000D+00  E=-1.004516D+01  Symmetry=a'
              MO Center=  3.2D-02, -1.5D-01,  8.6D-19, r^2= 1.8D+00
   Bfn.  Coefficient  Atom+Function         Bfn.  Coefficient  Atom+Function  
  ----- ------------  ---------------      ----- ------------  ---------------
    20      0.512777  3 C  s                  2     -0.459229  1 C  s          
    19     -0.267253  3 C  s                  1      0.239494  1 C  s          

 Vector    2  Occ=2.000000D+00  E=-1.004364D+01  Symmetry=a'
              MO Center=  3.1D-02,  1.5D-01,  1.3D-17, r^2= 1.8D+00
   Bfn.  Coefficient  Atom+Function         Bfn.  Coefficient  Atom+Function  
  ----- ------------  ---------------      ----- ------------  ---------------
     2      0.514846  1 C  s                 20      0.461540  3 C  s          
     1     -0.266980  1 C  s                 19     -0.239189  3 C  s          

 Vector    3  Occ=2.000000D+00  E=-9.978558D+00  Symmetry=a'
              MO Center= -6.3D-02, -1.2D-04, -2.2D-17, r^2= 2.8D-02
   Bfn.  Coefficient  Atom+Function         Bfn.  Coefficient  Atom+Function  
  ----- ------------  ---------------      ----- ------------  ---------------
    11      0.690258  2 C  s                 10     -0.358427  2 C  s          

 Vector    4  Occ=2.000000D+00  E=-7.518622D-01  Symmetry=a'
              MO Center= -6.6D-03,  7.7D-04,  1.7D-17, r^2= 1.1D+00
   Bfn.  Coefficient  Atom+Function         Bfn.  Coefficient  Atom+Function  
  ----- ------------  ---------------      ----- ------------  ---------------
    12      0.595876  2 C  s                  3      0.338513  1 C  s          
    21      0.338025  3 C  s                 11      0.171231  2 C  s          

 Vector    5  Occ=2.000000D+00  E=-6.556995D-01  Symmetry=a'
              MO Center= -2.0D-02, -1.0D-03,  6.3D-18, r^2= 1.3D+00
   Bfn.  Coefficient  Atom+Function         Bfn.  Coefficient  Atom+Function  
  ----- ------------  ---------------      ----- ------------  ---------------
     3      0.533724  1 C  s                 21     -0.534252  3 C  s          
    14      0.337624  2 C  py                 5     -0.168130  1 C  py         
    23     -0.168100  3 C  py         

 Vector    6  Occ=2.000000D+00  E=-3.301170D-01  Symmetry=a'
              MO Center= -3.3D-02, -2.3D-05, -2.8D-17, r^2= 1.8D+00
   Bfn.  Coefficient  Atom+Function         Bfn.  Coefficient  Atom+Function  
  ----- ------------  ---------------      ----- ------------  ---------------
    16      0.370417  2 C  px                13      0.360711  2 C  px         
     4      0.254334  1 C  px                22      0.254188  3 C  px         
     7      0.198638  1 C  px                25      0.198613  3 C  px         

 Vector    7  Occ=2.000000D+00  E=-3.300691D-01  Symmetry=a"
              MO Center= -1.9D-02,  4.4D-05,  2.3D-17, r^2= 1.8D+00
   Bfn.  Coefficient  Atom+Function         Bfn.  Coefficient  Atom+Function  
  ----- ------------  ---------------      ----- ------------  ---------------
    18      0.371074  2 C  pz                15      0.361853  2 C  pz         
     6      0.255621  1 C  pz                24      0.255578  3 C  pz         
     9      0.199166  1 C  pz                27      0.199186  3 C  pz         

 Vector    8  Occ=2.000000D+00  E=-2.991925D-01  Symmetry=a'
              MO Center=  2.2D-02, -5.4D-03,  1.1D-17, r^2= 3.4D+00
   Bfn.  Coefficient  Atom+Function         Bfn.  Coefficient  Atom+Function  
  ----- ------------  ---------------      ----- ------------  ---------------
     3      0.641814  1 C  s                 21      0.643102  3 C  s          
    12     -0.438162  2 C  s                 23     -0.211608  3 C  py         
     5      0.210463  1 C  py                26     -0.173121  3 C  py         
     8      0.171938  1 C  py         

 Vector    9  Occ=2.000000D+00  E=-2.664278D-01  Symmetry=a'
              MO Center=  7.1D-02,  5.9D-03, -5.8D-17, r^2= 3.6D+00
   Bfn.  Coefficient  Atom+Function         Bfn.  Coefficient  Atom+Function  
  ----- ------------  ---------------      ----- ------------  ---------------
     3      0.377042  1 C  s                 21     -0.374769  3 C  s          
     8      0.338099  1 C  py                26      0.337189  3 C  py         
     5      0.309421  1 C  py                23      0.308367  3 C  py         
    14     -0.282811  2 C  py         

 Vector   10  Occ=0.000000D+00  E=-1.887959D-01  Symmetry=a"
              MO Center=  3.1D-02, -8.2D-04, -3.7D-15, r^2= 2.9D+00
   Bfn.  Coefficient  Atom+Function         Bfn.  Coefficient  Atom+Function  
  ----- ------------  ---------------      ----- ------------  ---------------
     9      0.448192  1 C  pz                27     -0.448539  3 C  pz         
     6      0.389894  1 C  pz                24     -0.390169  3 C  pz         

 Vector   11  Occ=0.000000D+00  E=-1.884644D-01  Symmetry=a'
              MO Center=  1.5D-02, -8.9D-04,  3.7D-15, r^2= 2.9D+00
   Bfn.  Coefficient  Atom+Function         Bfn.  Coefficient  Atom+Function  
  ----- ------------  ---------------      ----- ------------  ---------------
     7      0.444582  1 C  px                25     -0.444441  3 C  px         
     4      0.387647  1 C  px                22     -0.387527  3 C  px         

 Vector   12  Occ=0.000000D+00  E= 5.230051D-03  Symmetry=a'
              MO Center= -6.4D-02,  5.5D-04,  2.9D-16, r^2= 2.3D+00
   Bfn.  Coefficient  Atom+Function         Bfn.  Coefficient  Atom+Function  
  ----- ------------  ---------------      ----- ------------  ---------------
    16      0.732927  2 C  px                 7     -0.520271  1 C  px         
    25     -0.519772  3 C  px                13      0.433144  2 C  px         
     4     -0.320922  1 C  px                22     -0.320929  3 C  px         

 Vector   13  Occ=0.000000D+00  E= 8.177857D-03  Symmetry=a"
              MO Center= -1.3D-02,  7.9D-04, -2.9D-16, r^2= 2.3D+00
   Bfn.  Coefficient  Atom+Function         Bfn.  Coefficient  Atom+Function  
  ----- ------------  ---------------      ----- ------------  ---------------
    18      0.743921  2 C  pz                 9     -0.522809  1 C  pz         
    27     -0.522258  3 C  pz                15      0.437855  2 C  pz         
     6     -0.320410  1 C  pz                24     -0.320154  3 C  pz         

 Vector   14  Occ=0.000000D+00  E= 2.245486D-01  Symmetry=a'
              MO Center=  3.1D-02, -1.4D-03,  1.5D-16, r^2= 2.5D+00
   Bfn.  Coefficient  Atom+Function         Bfn.  Coefficient  Atom+Function  
  ----- ------------  ---------------      ----- ------------  ---------------
    12      1.806312  2 C  s                  8      0.680708  1 C  py         
    26     -0.682011  3 C  py                 3     -0.663166  1 C  s          
    21     -0.664609  3 C  s                  5      0.386632  1 C  py         
    23     -0.386961  3 C  py                11      0.211546  2 C  s          
    16      0.159159  2 C  px         

 Vector   15  Occ=0.000000D+00  E= 4.084521D-01  Symmetry=a'
              MO Center=  6.9D-02,  2.1D-03,  2.2D-16, r^2= 5.6D+00
   Bfn.  Coefficient  Atom+Function         Bfn.  Coefficient  Atom+Function  
  ----- ------------  ---------------      ----- ------------  ---------------
    17      2.418645  2 C  py                 3     -1.851705  1 C  s          
    21      1.849817  3 C  s                  8      1.306658  1 C  py         
    26      1.304174  3 C  py                14      0.302011  2 C  py         
     2     -0.151646  1 C  s                 20      0.151483  3 C  s          

 Vector   16  Occ=0.000000D+00  E= 5.650390D-01  Symmetry=a'
              MO Center=  5.8D-02, -1.4D-03, -7.0D-17, r^2= 4.5D+00
   Bfn.  Coefficient  Atom+Function         Bfn.  Coefficient  Atom+Function  
  ----- ------------  ---------------      ----- ------------  ---------------
    12      0.928073  2 C  s                  8      0.917620  1 C  py         
    26     -0.918944  3 C  py                 5     -0.651369  1 C  py         
    23      0.652629  3 C  py                21     -0.251639  3 C  s          
     3     -0.248449  1 C  s          

 Vector   17  Occ=0.000000D+00  E= 6.204309D-01  Symmetry=a"
              MO Center=  4.3D-03, -9.2D-04, -1.0D-15, r^2= 2.7D+00
   Bfn.  Coefficient  Atom+Function         Bfn.  Coefficient  Atom+Function  
  ----- ------------  ---------------      ----- ------------  ---------------
    15      0.585391  2 C  pz                 6      0.579787  1 C  pz         
    24      0.580386  3 C  pz                 9     -0.494173  1 C  pz         
    27     -0.494732  3 C  pz                18     -0.327418  2 C  pz         

 Vector   18  Occ=0.000000D+00  E= 6.210954D-01  Symmetry=a'
              MO Center=  2.2D-04, -9.2D-04,  8.4D-16, r^2= 2.7D+00
   Bfn.  Coefficient  Atom+Function         Bfn.  Coefficient  Atom+Function  
  ----- ------------  ---------------      ----- ------------  ---------------
    13      0.586724  2 C  px                 4      0.577954  1 C  px         
    22      0.578889  3 C  px                 7     -0.493655  1 C  px         
    25     -0.494791  3 C  px                16     -0.332249  2 C  px         

 Vector   19  Occ=0.000000D+00  E= 6.612497D-01  Symmetry=a'
              MO Center= -2.7D-01, -3.8D-04, -4.3D-14, r^2= 1.7D+00
   Bfn.  Coefficient  Atom+Function         Bfn.  Coefficient  Atom+Function  
  ----- ------------  ---------------      ----- ------------  ---------------
    17      1.692968  2 C  py                14     -0.984859  2 C  py         
     3     -0.804091  1 C  s                 21      0.803866  3 C  s          
     4      0.238768  1 C  px                22     -0.237480  3 C  px         
     7     -0.203617  1 C  px                25      0.202553  3 C  px         
     5     -0.173055  1 C  py                23     -0.172710  3 C  py         


 center of mass
 --------------
 x =   0.00000000 y =  -0.00000000 z =   0.00000000

 moments of inertia (a.u.)
 ------------------
         157.777877643490           0.664727979770           0.000000000000
           0.664727979770           0.256899020915           0.000000000000
           0.000000000000           0.000000000000         158.034776664405

     Multipole analysis of the density
     ---------------------------------

     L   x y z        total         alpha         beta         nuclear
     -   - - -        -----         -----         ----         -------
     0   0 0 0     -0.000000     -9.000000     -9.000000     18.000000

     1   1 0 0     -0.054301     -0.027150     -0.027150      0.000000
     1   0 1 0     -0.001013     -0.000507     -0.000507     -0.000000
     1   0 0 1      0.000000      0.000000      0.000000      0.000000

     2   2 0 0    -12.119688     -6.124069     -6.124069      0.128450
     2   1 1 0      0.017811      0.175088      0.175088     -0.332364
     2   1 0 1      0.000000      0.000000      0.000000      0.000000
     2   0 2 0    -16.395026    -47.641982    -47.641982     78.888939
     2   0 1 1      0.000000      0.000000      0.000000      0.000000
     2   0 0 2    -12.092580     -6.046290     -6.046290      0.000000

 Line search: 
     step= 1.00 grad=-6.8D-03 hess= 7.1D-03 energy=   -113.731666 mode=bracket 
 new step= 0.48                   predicted energy=   -113.733573

          --------
          Step   2
          --------


                         Geometry "geometry" -> "geometry"
                         ---------------------------------

 Output coordinates in angstroms (scale by  1.889725989 to convert to a.u.)

  No.       Tag          Charge          X              Y              Z
 ---- ---------------- ---------- -------------- -------------- --------------
    1 C                    6.0000    -0.03881726     1.31556767     0.00000000
    2 C                    6.0000     0.06654748     0.00003630     0.00000000
    3 C                    6.0000    -0.02773022    -1.31560397     0.00000000

      Atomic Mass 
      ----------- 

      C                 12.000000


 Effective nuclear repulsion energy (a.u.)      36.1180028010

            Nuclear Dipole moment (a.u.) 
            ----------------------------
        X                 Y               Z
 ---------------- ---------------- ----------------
     0.0000000000    -0.0000000000     0.0000000000

      Symmetry information
      --------------------

 Group name             Cs        
 Group number              2
 Group order               2
 No. of unique centers     3

      Symmetry unique atoms

     1    2    3


                                 NWChem DFT Module
                                 -----------------


                                TDDFT c3 BLYP/pcs0



 **** WARNING Zero Coefficient **** on atom "               C"
 angular momentum value: 0  standard basis set name: "pcS-0"
 input line that generated warning:
    64:       0.446509E+03           0.399403E-01           0.000000E+00
  

 **** WARNING Zero Coefficient **** on atom "               C"
 angular momentum value: 0  standard basis set name: "pcS-0"
 input line that generated warning:
    67:       0.393876E+01           0.000000E+00          -0.500000E+00
  


 Summary of "ao basis" -> "ao basis" (spherical)
 ------------------------------------------------------------------------------
       Tag                 Description            Shells   Functions and Types
 ---------------- ------------------------------  ------  ---------------------
 C                           pcS-0                   5        9   3s2p


      Symmetry analysis of basis
      --------------------------

        a'         21
        a"          6

  Caching 1-el integrals 

            General Information
            -------------------
          SCF calculation type: DFT
          Wavefunction type:  closed shell.
          No. of atoms     :     3
          No. of electrons :    18
           Alpha electrons :     9
            Beta electrons :     9
          Charge           :     0
          Spin multiplicity:     1
          Use of symmetry is: on ; symmetry adaption is: on 
          Maximum number of iterations: ***
          This is a Direct SCF calculation.
          AO basis - number of functions:    27
                     number of shells:    15
          Convergence on energy requested: 1.00D-06
          Convergence on density requested: 1.00D-05
          Convergence on gradient requested: 5.00D-04

[...]


                                TDDFT c3 BLYP/pcs0



 **** WARNING Zero Coefficient **** on atom "               C"
 angular momentum value: 0  standard basis set name: "pcS-0"
 input line that generated warning:
    64:       0.446509E+03           0.399403E-01           0.000000E+00
  

 **** WARNING Zero Coefficient **** on atom "               C"
 angular momentum value: 0  standard basis set name: "pcS-0"
 input line that generated warning:
    67:       0.393876E+01           0.000000E+00          -0.500000E+00
  


 Summary of "ao basis" -> "ao basis" (spherical)
 ------------------------------------------------------------------------------
       Tag                 Description            Shells   Functions and Types
 ---------------- ------------------------------  ------  ---------------------
 C                           pcS-0                   5        9   3s2p


      Symmetry analysis of basis
      --------------------------

        a'         21
        a"          6

  Caching 1-el integrals 

            General Information
            -------------------
          SCF calculation type: DFT
          Wavefunction type:  closed shell.
          No. of atoms     :     3
          No. of electrons :    18
           Alpha electrons :     9
            Beta electrons :     9
          Charge           :     0
          Spin multiplicity:     1
          Use of symmetry is: on ; symmetry adaption is: on 
          Maximum number of iterations: ***
          This is a Direct SCF calculation.
          AO basis - number of functions:    27
                     number of shells:    15
          Convergence on energy requested: 1.00D-06
          Convergence on density requested: 1.00D-05
          Convergence on gradient requested: 5.00D-04

              XC Information
              --------------
                    Becke 1988 Exchange Functional  1.000          
              Lee-Yang-Parr Correlation Functional  1.000          

             Grid Information
             ----------------
          Grid used for XC integration:  medium    
          Radial quadrature: Mura-Knowles        
          Angular quadrature: Lebedev. 
          Tag              B.-S. Rad. Rad. Pts. Rad. Cut. Ang. Pts.
          ---              ---------- --------- --------- ---------
          C                   0.70       49           8.0       434
          Grid pruning is: on 
          Number of quadrature shells:   147
          Spatial weights used:  Erf1

          Convergence Information
          -----------------------
          Convergence aids based upon iterative change in 
          total energy or number of iterations. 
          Levelshifting, if invoked, occurs when the 
          HOMO/LUMO gap drops below (HL_TOL): 1.00D-02
          DIIS, if invoked, will attempt to extrapolate 
          using up to (NFOCK): 10 stored Fock matrices.

                    Damping( 0%)  Levelshifting(0.0)       DIIS
                  --------------- ------------------- ---------------
          dE  on:    start             N/A                start   
          dE off:    2 iters           N/A              *** iters 


      Screening Tolerance Information
      -------------------------------
          Density screening/tol_rho: 1.00D-10
          AO Gaussian exp screening on grid/accAOfunc:  14
          CD Gaussian exp screening on grid/accCDfunc:  20
          XC Gaussian exp screening on grid/accXCfunc:  20
          Schwarz screening/accCoul: 1.00D-08


 Loading old vectors from job with title :

TDDFT c3 BLYP/pcs0


      Symmetry analysis of molecular orbitals - initial
      -------------------------------------------------

  Numbering of irreducible representations: 

     1 a'          2 a"      

  Orbital symmetries:

     1 a'          2 a'          3 a'          4 a'          5 a'      
     6 a"          7 a'          8 a'          9 a'         10 a"      
    11 a'         12 a'         13 a"         14 a'         15 a'      
    16 a'         17 a"         18 a'         19 a'      

   Time after variat. SCF:      4.2
   Time prior to 1st pass:      4.2

 Grid_pts file          = ./c3.gridpts.0
 Record size in doubles =  12289        No. of grid_pts per rec  =   3070
 Max. records in memory =     24        Max. recs in file   =    991831


           Memory utilization after 1st SCF pass: 
           Heap Space remaining (MW):       12.81            12810636
          Stack Space remaining (MW):       13.11            13106908

   convergence    iter        energy       DeltaE   RMS-Dens  Diis-err    time
 ---------------- ----- ----------------- --------- --------- ---------  ------
 d= 0,ls=0.0,diis     1   -113.2473873294 -1.43D+02  8.01D-02  1.56D+00     4.3
 d= 0,ls=0.0,diis     2   -113.5328021570 -2.85D-01  5.60D-02  3.83D-01     4.3
 d= 0,ls=0.0,diis     3   -113.1254799630  4.07D-01  3.82D-02  3.13D+00     4.4
 d= 0,ls=0.0,diis     4   -113.6007006662 -4.75D-01  1.04D-02  1.83D-02     4.4
 d= 0,ls=0.0,diis     5   -113.6067984507 -6.10D-03  3.13D-03  1.03D-03     4.5
 d= 0,ls=0.0,diis     6   -113.6046749010  2.12D-03  2.57D-03  1.34D-02     4.5
 d= 0,ls=0.0,diis     7   -113.6070146535 -2.34D-03  4.08D-04  2.63D-04     4.5
 d= 0,ls=0.0,diis     8   -113.6070622035 -4.75D-05  2.23D-05  3.29D-07     4.6
 d= 0,ls=0.0,diis     9   -113.6070622628 -5.93D-08  4.00D-06  6.21D-09     4.6


         Total DFT energy =     -113.607062262783
      One electron energy =     -210.082821433280
           Coulomb energy =       82.467737563103
    Exchange-Corr. energy =      -15.623595877127
 Nuclear repulsion energy =       29.631617484521

 Numeric. integr. density =       18.000000258759

     Total iterative time =      0.4s



                  Occupations of the irreducible representations
                  ----------------------------------------------

                     irrep           alpha         beta
                     --------     --------     --------
                     a'                8.0          8.0
                     a"                1.0          1.0


                       DFT Final Molecular Orbital Analysis
                       ------------------------------------

 Vector    1  Occ=2.000000D+00  E=-1.007154D+01  Symmetry=a'
              MO Center=  3.0D-01, -3.1D-01, -8.3D-18, r^2= 1.9D+00
   Bfn.  Coefficient  Atom+Function         Bfn.  Coefficient  Atom+Function  
  ----- ------------  ---------------      ----- ------------  ---------------
    20      0.540739  3 C  s                  2     -0.430605  1 C  s          
    19     -0.280418  3 C  s                  1      0.223377  1 C  s          

 Vector    2  Occ=2.000000D+00  E=-1.007112D+01  Symmetry=a'
              MO Center=  3.0D-01,  3.1D-01,  2.7D-18, r^2= 1.9D+00
   Bfn.  Coefficient  Atom+Function         Bfn.  Coefficient  Atom+Function  
  ----- ------------  ---------------      ----- ------------  ---------------
     2      0.541165  1 C  s                 20      0.431142  3 C  s          
     1     -0.280324  1 C  s                 19     -0.223259  3 C  s          

 Vector    3  Occ=2.000000D+00  E=-1.002278D+01  Symmetry=a'
              MO Center= -6.1D-01, -2.3D-03, -2.7D-18, r^2= 2.8D-02
   Bfn.  Coefficient  Atom+Function         Bfn.  Coefficient  Atom+Function  
  ----- ------------  ---------------      ----- ------------  ---------------
    11      0.690751  2 C  s                 10     -0.358595  2 C  s          

 Vector    4  Occ=2.000000D+00  E=-6.679560D-01  Symmetry=a'
              MO Center= -1.1D-01,  2.7D-04,  1.4D-16, r^2= 1.3D+00
   Bfn.  Coefficient  Atom+Function         Bfn.  Coefficient  Atom+Function  
  ----- ------------  ---------------      ----- ------------  ---------------
    12      0.575771  2 C  s                  3      0.392716  1 C  s          
    21      0.392348  3 C  s          

 Vector    5  Occ=2.000000D+00  E=-5.453889D-01  Symmetry=a'
              MO Center=  1.6D-02, -1.0D-03, -3.2D-18, r^2= 2.1D+00
   Bfn.  Coefficient  Atom+Function         Bfn.  Coefficient  Atom+Function  
  ----- ------------  ---------------      ----- ------------  ---------------
     3      0.601642  1 C  s                 21     -0.602289  3 C  s          
    14      0.214387  2 C  py         

 Vector    6  Occ=2.000000D+00  E=-3.638591D-01  Symmetry=a'
              MO Center=  5.4D-02,  1.3D-05, -3.3D-16, r^2= 2.9D+00
   Bfn.  Coefficient  Atom+Function         Bfn.  Coefficient  Atom+Function  
  ----- ------------  ---------------      ----- ------------  ---------------
    12     -0.621033  2 C  s                  3      0.565616  1 C  s          
    21      0.565508  3 C  s          

 Vector    7  Occ=2.000000D+00  E=-2.716801D-01  Symmetry=a"
              MO Center= -1.1D-01, -2.8D-04, -1.2D-16, r^2= 2.2D+00
   Bfn.  Coefficient  Atom+Function         Bfn.  Coefficient  Atom+Function  
  ----- ------------  ---------------      ----- ------------  ---------------
    18      0.352929  2 C  pz                15      0.324966  2 C  pz         
     9      0.269772  1 C  pz                27      0.269753  3 C  pz         
     6      0.265796  1 C  pz                24      0.265756  3 C  pz         

 Vector    8  Occ=2.000000D+00  E=-2.712875D-01  Symmetry=a'
              MO Center=  3.1D-01, -5.7D-03, -1.9D-16, r^2= 3.2D+00
   Bfn.  Coefficient  Atom+Function         Bfn.  Coefficient  Atom+Function  
  ----- ------------  ---------------      ----- ------------  ---------------
    21     -0.372101  3 C  s                  3      0.367845  1 C  s          
    14     -0.296280  2 C  py                 4      0.228872  1 C  px         
    22     -0.227848  3 C  px                 7      0.224048  1 C  px         
    25     -0.222732  3 C  px                26      0.207917  3 C  py         
     8      0.205521  1 C  py                23      0.192870  3 C  py         

 Vector    9  Occ=2.000000D+00  E=-2.693837D-01  Symmetry=a'
              MO Center= -1.6D-01,  6.9D-03,  1.3D-16, r^2= 2.7D+00
   Bfn.  Coefficient  Atom+Function         Bfn.  Coefficient  Atom+Function  
  ----- ------------  ---------------      ----- ------------  ---------------
    16      0.325158  2 C  px                13      0.300387  2 C  px         
     5     -0.248980  1 C  py                23      0.246331  3 C  py         
     3     -0.243612  1 C  s                 21     -0.236467  3 C  s          
     8     -0.220041  1 C  py                26      0.217282  3 C  py         
    12     -0.164418  2 C  s                 25      0.156025  3 C  px         

 Vector   10  Occ=0.000000D+00  E=-1.872795D-01  Symmetry=a"
              MO Center=  3.0D-01,  1.7D-04,  2.1D-16, r^2= 3.0D+00
   Bfn.  Coefficient  Atom+Function         Bfn.  Coefficient  Atom+Function  
  ----- ------------  ---------------      ----- ------------  ---------------
     9      0.441602  1 C  pz                27     -0.441944  3 C  pz         
     6      0.393838  1 C  pz                24     -0.394143  3 C  pz         

 Vector   11  Occ=0.000000D+00  E=-1.707664D-01  Symmetry=a'
              MO Center=  2.7D-01, -1.3D-03, -1.9D-17, r^2= 3.1D+00
   Bfn.  Coefficient  Atom+Function         Bfn.  Coefficient  Atom+Function  
  ----- ------------  ---------------      ----- ------------  ---------------
    26      0.361613  3 C  py                 8      0.359063  1 C  py         
    23      0.314488  3 C  py                 5      0.312304  1 C  py         
     7     -0.283180  1 C  px                25      0.281246  3 C  px         
     4     -0.262789  1 C  px                22      0.261170  3 C  px         

 Vector   12  Occ=0.000000D+00  E=-1.468926D-01  Symmetry=a'
              MO Center= -9.0D-02,  1.6D-03,  9.1D-17, r^2= 2.7D+00
   Bfn.  Coefficient  Atom+Function         Bfn.  Coefficient  Atom+Function  
  ----- ------------  ---------------      ----- ------------  ---------------
    12      0.417762  2 C  s                  7      0.384261  1 C  px         
    25      0.383078  3 C  px                16     -0.369825  2 C  px         
     4      0.342227  1 C  px                22      0.341664  3 C  px         
    13     -0.304151  2 C  px         

 Vector   13  Occ=0.000000D+00  E=-8.077805D-02  Symmetry=a"
              MO Center= -2.0D-01,  1.1D-04, -7.7D-17, r^2= 2.2D+00
   Bfn.  Coefficient  Atom+Function         Bfn.  Coefficient  Atom+Function  
  ----- ------------  ---------------      ----- ------------  ---------------
    18      0.590185  2 C  pz                15      0.444637  2 C  pz         
     9     -0.378237  1 C  pz                27     -0.377736  3 C  pz         
     6     -0.295910  1 C  pz                24     -0.295561  3 C  pz         

 Vector   14  Occ=0.000000D+00  E= 9.811136D-02  Symmetry=a'
              MO Center= -3.6D-02, -4.8D-03, -1.9D-17, r^2= 2.4D+00
   Bfn.  Coefficient  Atom+Function         Bfn.  Coefficient  Atom+Function  
  ----- ------------  ---------------      ----- ------------  ---------------
    12      1.065644  2 C  s                 16      0.650480  2 C  px         
     8      0.521923  1 C  py                26     -0.523095  3 C  py         
    21     -0.470807  3 C  s                  3     -0.466483  1 C  s          
    13      0.361482  2 C  px                 5      0.303975  1 C  py         
    23     -0.304350  3 C  py                25      0.192191  3 C  px         

 Vector   15  Occ=0.000000D+00  E= 1.316597D-01  Symmetry=a'
              MO Center= -2.4D-01,  4.1D-03,  3.2D-18, r^2= 2.5D+00
   Bfn.  Coefficient  Atom+Function         Bfn.  Coefficient  Atom+Function  
  ----- ------------  ---------------      ----- ------------  ---------------
    17      1.062815  2 C  py                 3     -0.662584  1 C  s          
    21      0.658581  3 C  s                 14      0.497233  2 C  py         
     7      0.438934  1 C  px                25     -0.440611  3 C  px         
     8      0.426953  1 C  py                26      0.419397  3 C  py         
     4      0.222193  1 C  px                22     -0.222754  3 C  px         

 Vector   16  Occ=0.000000D+00  E= 5.874713D-01  Symmetry=a'
              MO Center= -7.7D-02, -2.9D-03,  2.3D-15, r^2= 4.3D+00
   Bfn.  Coefficient  Atom+Function         Bfn.  Coefficient  Atom+Function  
  ----- ------------  ---------------      ----- ------------  ---------------
    16      0.816228  2 C  px                 8      0.791351  1 C  py         
    26     -0.791787  3 C  py                12      0.753696  2 C  s          
     5     -0.557518  1 C  py                23      0.557728  3 C  py         
    13     -0.483797  2 C  px                21     -0.281812  3 C  s          
     3     -0.280287  1 C  s                 25      0.178660  3 C  px         

 Vector   17  Occ=0.000000D+00  E= 6.060435D-01  Symmetry=a'
              MO Center=  8.7D-02,  1.7D-03, -4.4D-15, r^2= 4.2D+00
   Bfn.  Coefficient  Atom+Function         Bfn.  Coefficient  Atom+Function  
  ----- ------------  ---------------      ----- ------------  ---------------
    17      1.334058  2 C  py                 8      0.743369  1 C  py         
    26      0.738805  3 C  py                14     -0.615879  2 C  py         
     3     -0.605316  1 C  s                 21      0.603806  3 C  s          
     7      0.506432  1 C  px                25     -0.508567  3 C  px         
     5     -0.471160  1 C  py                23     -0.470241  3 C  py         

 Vector   18  Occ=0.000000D+00  E= 6.107443D-01  Symmetry=a'
              MO Center=  2.4D-01,  1.1D-03,  1.1D-15, r^2= 3.0D+00
   Bfn.  Coefficient  Atom+Function         Bfn.  Coefficient  Atom+Function  
  ----- ------------  ---------------      ----- ------------  ---------------
     4      0.590281  1 C  px                22      0.589603  3 C  px         
     7     -0.533163  1 C  px                25     -0.535578  3 C  px         
    13      0.385053  2 C  px                23      0.296295  3 C  py         
     5     -0.294589  1 C  py                16     -0.228823  2 C  px         
     8      0.197342  1 C  py                26     -0.196662  3 C  py         

 Vector   19  Occ=0.000000D+00  E= 6.214400D-01  Symmetry=a"
              MO Center=  8.9D-02, -1.2D-03, -2.5D-15, r^2= 2.9D+00
   Bfn.  Coefficient  Atom+Function         Bfn.  Coefficient  Atom+Function  
  ----- ------------  ---------------      ----- ------------  ---------------
     6      0.612008  1 C  pz                24      0.612919  3 C  pz         
    15      0.534256  2 C  pz                 9     -0.524297  1 C  pz         
    27     -0.525220  3 C  pz                18     -0.273489  2 C  pz         


 center of mass
 --------------
 x =   0.00000000 y =   0.00000000 z =   0.00000000

 moments of inertia (a.u.)
 ------------------
         167.949156505811           0.599483825320           0.000000000000
           0.599483825320          23.606454124372           0.000000000000
           0.000000000000           0.000000000000         191.555610630183

     Multipole analysis of the density
     ---------------------------------

     L   x y z        total         alpha         beta         nuclear
     -   - - -        -----         -----         ----         -------
     0   0 0 0     -0.000000     -9.000000     -9.000000     18.000000

     1   1 0 0     -0.009468     -0.004734     -0.004734      0.000000
     1   0 1 0     -0.000549     -0.000275     -0.000275      0.000000
     1   0 0 1      0.000000      0.000000      0.000000      0.000000

     2   2 0 0    -13.527599    -12.665413    -12.665413     11.803227
     2   1 1 0      0.001072      0.150407      0.150407     -0.299742
     2   1 0 1      0.000000      0.000000      0.000000      0.000000
     2   0 2 0    -13.937495    -48.956037    -48.956037     83.974578
     2   0 1 1      0.000000      0.000000      0.000000      0.000000
     2   0 0 2    -12.878555     -6.439277     -6.439277      0.000000

 Line search: 
     step= 0.90 grad=-1.0D-02 hess= 1.7D-01 energy=   -113.607062 mode=bracket 
 new step= 0.03                   predicted energy=   -113.734426
 !! There are insufficient internal variables: expected     2 got     3
 !! Either AUTOZ failed or your geometry has changed so much that the
 !! coordinates should be regenerated.
 ------------------------------------------------------------------------
 geom_binvr: #indep variables incorrect              200003
 ------------------------------------------------------------------------
 ------------------------------------------------------------------------
  current input line : 
    42: task dft optimize
 ------------------------------------------------------------------------
 ------------------------------------------------------------------------
 There is an error related to the specified geometry
 ------------------------------------------------------------------------
 For more information see the NWChem manual at http://www.nwchem-sw.org/index.php/NWChem_Documentation


 For further details see manual section:                                                                                                                                                                                                                                                                
--------------------------------------------------------------------------
MPI_ABORT was invoked on rank 0 in communicator MPI COMMUNICATOR 4 DUP FROM 0 
with errorcode 200003.

NOTE: invoking MPI_ABORT causes Open MPI to kill all MPI processes.
You may or may not see output from other processes, depending on
exactly when Open MPI kills them.
--------------------------------------------------------------------------
0:0:geom_binvr: #indep variables incorrect:: 200003
(rank:0 hostname:alarcj-ThinkPad-T430s pid:31560):ARMCI DASSERT fail. ../../ga-5-4/armci/src/common/armci.c:ARMCI_Error():208 cond:0
