34
	Energy:     280.1887538
C         -8.45307        1.31740       -0.00354
C         -7.04023        1.32868       -0.01010
C         -5.83154        1.34135        0.01430
C         -4.40831        1.30779       -0.00435
C         -3.19035        1.30052        0.00153
C         -1.70644        1.36473       -0.00415
C         -0.24369        1.30511        0.00053
C          0.94372        1.31126       -0.00025
C          2.30786        1.28760       -0.00042
C          3.49380        1.36752        0.00195
C          4.90879        1.41260       -0.00488
C          6.15171        1.44016        0.00465
C          7.73837        1.41284       -0.00294
C          9.33791        1.43793        0.00450
C         10.59854        1.40059       -0.00373
C         12.05837        1.32733        0.01713
C         13.27634        1.34395       -0.03669
C         14.67731        1.36990        0.02785
C         15.86674        1.38426       -0.00851
C         17.28885        1.40516        0.00354
H         17.77923        0.91530        0.81912
H         17.77931        1.87381       -0.82117
C         -9.66356        1.32725        0.00836
C        -11.08930        1.25927        0.00113
C        -12.30331        1.23582        0.00451
C        -13.71500        1.24215       -0.00844
C        -14.90091        1.20803        0.00114
C        -16.28787        1.21261       -0.01042
C        -17.63753        1.25960        0.01166
C        -18.77332        1.26729       -0.00273
C        -20.10469        1.08732        0.00301
C        -21.50700        1.28081       -0.00974
H        -22.02753        0.77434       -0.79315
H        -21.96209        1.78788        0.80032
