9
	Energy:      -0.6134282
C         -6.56021       -0.55457        0.00077
C         -5.25556       -0.53101        0.00007
H         -7.09067       -1.16943        0.71939
H         -7.11331        0.04224       -0.71600
C         -3.97446       -0.50769       -0.00050
C         -2.69349       -0.48415       -0.00093
C         -1.38876       -0.45996       -0.00125
H         -0.85766        0.11291       -0.75330
H         -0.83644       -1.01110        0.75175
