 argument  1 = run.nw



============================== echo of input deck ==============================
echo

start c3

title "TDDFT c3 BLYP/pcs0"

geometry units angstroms
load c3.xyz
end

basis  spherical
 * library pcS-0
end

dft
 xc becke88 lyp
 direct
 convergence nolevelshifting
 tolerances tight
 iterations 1000
end

hessian
 thresh 1d-8
 profile
end

property
 response  1 8.8559E-2
 damping 0.007
end

raman
 normal
end

driver
 maxiter 1000
 xyz opt
end

task dft optimize
task dft raman numerical

freq
 reuse
 temp 1 0.0
end

task dft freq numerical

================================================================================


                                         
                                         


              Northwest Computational Chemistry Package (NWChem) 6.6
              ------------------------------------------------------


                    Environmental Molecular Sciences Laboratory
                       Pacific Northwest National Laboratory
                                Richland, WA 99352

                              Copyright (c) 1994-2015
                       Pacific Northwest National Laboratory
                            Battelle Memorial Institute

             NWChem is an open-source computational chemistry package
                        distributed under the terms of the
                      Educational Community License (ECL) 2.0
             A copy of the license is included with this distribution
                              in the LICENSE.TXT file

                                  ACKNOWLEDGMENT
                                  --------------

            This software and its documentation were developed at the
            EMSL at Pacific Northwest National Laboratory, a multiprogram
            national laboratory, operated for the U.S. Department of Energy
            by Battelle under Contract Number DE-AC05-76RL01830. Support
            for this work was provided by the Department of Energy Office
            of Biological and Environmental Research, Office of Basic
            Energy Sciences, and the Office of Advanced Scientific Computing.


           Job information
           ---------------

    hostname        = alarcj-ThinkPad-T430s
    program         = nwchem
    date            = Thu Sep 29 09:32:46 2016

    compiled        = Mon_Feb_15_08:24:17_2016
    source          = /build/nwchem-MF0R1k/nwchem-6.6+r27746
    nwchem branch   = 6.6
    nwchem revision = 27746
    ga revision     = 10594
    input           = run.nw
    prefix          = c3.
    data base       = ./c3.db
    status          = startup
    nproc           =        1
    time left       =     -1s



           Memory information
           ------------------

    heap     =   13107194 doubles =    100.0 Mbytes
    stack    =   13107199 doubles =    100.0 Mbytes
    global   =   26214400 doubles =    200.0 Mbytes (distinct from heap & stack)
    total    =   52428793 doubles =    400.0 Mbytes
    verify   = yes
    hardfail = no 


           Directory information
           ---------------------

  0 permanent = .
  0 scratch   = .




                                NWChem Input Module
                                -------------------


                                TDDFT c3 BLYP/pcs0
                                ------------------

 Scaling coordinates for geometry "geometry" by  1.889725989
 (inverse scale =  0.529177249)

 C1  symmetry detected

          ------
          auto-z
          ------
  Looking for out-of-plane bends


                             Geometry "geometry" -> ""
                             -------------------------

 Output coordinates in angstroms (scale by  1.889725989 to convert to a.u.)

  No.       Tag          Charge          X              Y              Z
 ---- ---------------- ---------- -------------- -------------- --------------
    1 C                    6.0000    -0.00121015    -1.19480895    -0.00238896
    2 C                    6.0000     0.00407585    -0.00869274     0.00944662
    3 H                    1.0000     0.86151153    -1.71687163     0.21710268
    4 H                    1.0000    -0.86853320    -1.70467708    -0.23218342
    5 C                    6.0000    -0.00075595     1.20132602    -0.00216871
    6 H                    1.0000    -0.86776383     1.71601170     0.21788134
    7 H                    1.0000     0.86212705     1.71859101    -0.23213430

      Atomic Mass 
      ----------- 

      C                 12.000000
      H                  1.007825


 Effective nuclear repulsion energy (a.u.)      63.9731663965

            Nuclear Dipole moment (a.u.) 
            ----------------------------
        X                 Y               Z
 ---------------- ---------------- ----------------
    -0.0000000000     0.0000000000    -0.0000000000



                                Z-matrix (autoz)
                                -------- 

 Units are Angstrom for bonds and degrees for angles

      Type          Name      I     J     K     L     M      Value
      ----------- --------  ----- ----- ----- ----- ----- ----------
    1 Stretch                  1     2                       1.18619
    2 Stretch                  1     3                       1.03200
    3 Stretch                  1     4                       1.03200
    4 Stretch                  2     5                       1.21008
    5 Stretch                  5     6                       1.03200
    6 Stretch                  5     7                       1.03200
    7 Bend                     1     5     6               119.90651
    8 Bend                     1     5     7               120.09042
    9 Bend                     2     1     3               119.99995
   10 Bend                     2     1     4               119.99977
   11 Bend                     2     5     6               120.00045
   12 Bend                     2     5     7               120.00008
   13 Bend                     3     1     4               120.00028
   14 Bend                     5     1     3               120.37776
   15 Bend                     5     1     4               119.61957
   16 Bend                     6     5     7               119.99946
   17 Torsion                  2     1     3     4        -179.99968
   18 Torsion                  2     1     4     3         179.99968
   19 Torsion                  2     5     6     7        -179.99934
   20 Torsion                  2     5     7     6         179.99934
   21 Torsion                  3     1     5     6        -151.48764
   22 Torsion                  3     1     5     7          29.20316
   23 Torsion                  1     3     2     5        -177.87398
   24 Torsion                  4     1     5     6          29.07478
   25 Torsion                  4     1     5     7        -150.23441
   26 Torsion                  1     4     2     5         177.97742
   27 Torsion                  1     2     6     5        -177.39180
   28 Torsion                  1     2     7     5         177.35891


            XYZ format geometry
            -------------------
     7
 geometry
 C                    -0.00121015    -1.19480895    -0.00238896
 C                     0.00407585    -0.00869274     0.00944662
 H                     0.86151153    -1.71687163     0.21710268
 H                    -0.86853320    -1.70467708    -0.23218342
 C                    -0.00075595     1.20132602    -0.00216871
 H                    -0.86776383     1.71601170     0.21788134
 H                     0.86212705     1.71859101    -0.23213430

 ==============================================================================
                                internuclear distances
 ------------------------------------------------------------------------------
       center one      |      center two      | atomic units |  angstroms
 ------------------------------------------------------------------------------
    2 C                |   1 C                |     2.24157  |     1.18619
    3 H                |   1 C                |     1.95019  |     1.03200
    4 H                |   1 C                |     1.95019  |     1.03200
    5 C                |   2 C                |     2.28673  |     1.21008
    6 H                |   5 C                |     1.95020  |     1.03200
    7 H                |   5 C                |     1.95019  |     1.03200
 ------------------------------------------------------------------------------
                         number of included internuclear distances:          6
 ==============================================================================



 ==============================================================================
                                 internuclear angles
 ------------------------------------------------------------------------------
        center 1       |       center 2       |       center 3       |  degrees
 ------------------------------------------------------------------------------
    2 C                |   1 C                |   3 H                |   120.00
    2 C                |   1 C                |   4 H                |   120.00
    3 H                |   1 C                |   4 H                |   120.00
    1 C                |   2 C                |   5 C                |   178.78
    2 C                |   5 C                |   6 H                |   120.00
    2 C                |   5 C                |   7 H                |   120.00
    6 H                |   5 C                |   7 H                |   120.00
 ------------------------------------------------------------------------------
                            number of included internuclear angles:          7
 ==============================================================================





 Summary of "ao basis" -> "" (spherical)
 ------------------------------------------------------------------------------
       Tag                 Description            Shells   Functions and Types
 ---------------- ------------------------------  ------  ---------------------
 *                           pcS-0                    on all atoms 




                           NWChem Geometry Optimization
                           ----------------------------




                                TDDFT c3 BLYP/pcs0


 maximum gradient threshold         (gmax) =   0.000450
 rms gradient threshold             (grms) =   0.000300
 maximum cartesian step threshold   (xmax) =   0.001800
 rms cartesian step threshold       (xrms) =   0.001200
 fixed trust radius                (trust) =   0.300000
 maximum step size to saddle      (sadstp) =   0.100000
 energy precision                  (eprec) =   5.0D-06
 maximum number of steps          (nptopt) = 1000
 initial hessian option           (inhess) =    0
 line search option               (linopt) =    1
 hessian update option            (modupd) =    1
 saddle point option              (modsad) =    0
 initial eigen-mode to follow     (moddir) =    0
 initial variable to follow       (vardir) =    0
 follow first negative mode     (firstneg) =    T
 apply conjugacy                    (opcg) =    F
 source of zmatrix                         =   autoz   


          -------------------
          Energy Minimization
          -------------------


 Names of Z-matrix variables 
    1              2              3              4              5         
    6              7              8              9             10         
   11             12             13             14             15         
   16             17             18             19             20         
   21             22             23             24             25         
   26             27             28         

 Variables with the same non-blank name are constrained to be equal


 Using diagonal initial Hessian 
 Scaling for Hessian diagonals: bonds = 1.00  angles = 0.25  torsions = 0.10

          --------
          Step   0
          --------


                         Geometry "geometry" -> "geometry"
                         ---------------------------------

 Output coordinates in angstroms (scale by  1.889725989 to convert to a.u.)

  No.       Tag          Charge          X              Y              Z
 ---- ---------------- ---------- -------------- -------------- --------------
    1 C                    6.0000    -0.00121015    -1.19480895    -0.00238896
    2 C                    6.0000     0.00407585    -0.00869274     0.00944662
    3 H                    1.0000     0.86151153    -1.71687163     0.21710268
    4 H                    1.0000    -0.86853320    -1.70467708    -0.23218342
    5 C                    6.0000    -0.00075595     1.20132602    -0.00216871
    6 H                    1.0000    -0.86776383     1.71601170     0.21788134
    7 H                    1.0000     0.86212705     1.71859101    -0.23213430

      Atomic Mass 
      ----------- 

      C                 12.000000
      H                  1.007825


 Effective nuclear repulsion energy (a.u.)      63.9731663965

            Nuclear Dipole moment (a.u.) 
            ----------------------------
        X                 Y               Z
 ---------------- ---------------- ----------------
    -0.0000000000     0.0000000000    -0.0000000000


                                 NWChem DFT Module
                                 -----------------


                                TDDFT c3 BLYP/pcs0



 **** WARNING Zero Coefficient **** on atom "               C"
 angular momentum value: 0  standard basis set name: "pcS-0"
 input line that generated warning:
    64:       0.446509E+03           0.399403E-01           0.000000E+00
  

 **** WARNING Zero Coefficient **** on atom "               C"
 angular momentum value: 0  standard basis set name: "pcS-0"
 input line that generated warning:
    67:       0.393876E+01           0.000000E+00          -0.500000E+00
  
                      Basis "ao basis" -> "ao basis" (spherical)
                      -----
  C (Carbon)
  ----------
            Exponent  Coefficients 
       -------------- ---------------------------------------------------------
  1 S  4.46509000E+02  0.039940
  1 S  6.74620000E+01  0.276430
  1 S  1.50674000E+01  0.500000

  2 S  6.74620000E+01  0.002028
  2 S  1.50674000E+01 -0.209826
  2 S  3.93876000E+00 -0.500000

  3 S  2.99915000E-01  1.000000

  4 P  2.83900000E+01  0.010604
  4 P  4.36769000E+00  0.110992
  4 P  8.69817000E-01  0.500000

  5 P  1.88934000E-01  1.000000

  H (Hydrogen)
  ------------
            Exponent  Coefficients 
       -------------- ---------------------------------------------------------
  1 S  4.34480000E+00  0.090662
  1 S  6.60491000E-01  0.500000

  2 S  1.36687000E-01  1.000000



 Summary of "ao basis" -> "ao basis" (spherical)
 ------------------------------------------------------------------------------
       Tag                 Description            Shells   Functions and Types
 ---------------- ------------------------------  ------  ---------------------
 C                           pcS-0                   5        9   3s2p
 H                           pcS-0                   2        2   2s




 Summary of "ao basis" -> "ao basis" (spherical)
 ------------------------------------------------------------------------------
       Tag                 Description            Shells   Functions and Types
 ---------------- ------------------------------  ------  ---------------------
 C                           pcS-0                   5        9   3s2p
 H                           pcS-0                   2        2   2s


  Caching 1-el integrals 

            General Information
            -------------------
          SCF calculation type: DFT
          Wavefunction type:  closed shell.
          No. of atoms     :     7
          No. of electrons :    22
           Alpha electrons :    11
            Beta electrons :    11
          Charge           :     0
          Spin multiplicity:     1
          Use of symmetry is: off; symmetry adaption is: off
          Maximum number of iterations: ***
          This is a Direct SCF calculation.
          AO basis - number of functions:    35
                     number of shells:    23
          Convergence on energy requested: 1.00D-06
          Convergence on density requested: 1.00D-05
          Convergence on gradient requested: 5.00D-04

              XC Information
              --------------
                    Becke 1988 Exchange Functional  1.000          
              Lee-Yang-Parr Correlation Functional  1.000          

             Grid Information
             ----------------
          Grid used for XC integration:  medium    
          Radial quadrature: Mura-Knowles        
          Angular quadrature: Lebedev. 
          Tag              B.-S. Rad. Rad. Pts. Rad. Cut. Ang. Pts.
          ---              ---------- --------- --------- ---------
          C                   0.70       49           9.0       434
          H                   0.35       45          10.0       434
          Grid pruning is: on 
          Number of quadrature shells:   327
          Spatial weights used:  Erf1

          Convergence Information
          -----------------------
          Convergence aids based upon iterative change in 
          total energy or number of iterations. 
          Levelshifting, if invoked, occurs when the 
          HOMO/LUMO gap drops below (HL_TOL): 1.00D-02
          DIIS, if invoked, will attempt to extrapolate 
          using up to (NFOCK): 10 stored Fock matrices.

                    Damping( 0%)  Levelshifting(0.0)       DIIS
                  --------------- ------------------- ---------------
          dE  on:    start             N/A                start   
          dE off:    2 iters           N/A              *** iters 


      Screening Tolerance Information
      -------------------------------
          Density screening/tol_rho: 1.00D-10
          AO Gaussian exp screening on grid/accAOfunc:  14
          CD Gaussian exp screening on grid/accCDfunc:  20
          XC Gaussian exp screening on grid/accXCfunc:  20
          Schwarz screening/accCoul: 1.00D-08


      Superposition of Atomic Density Guess
      -------------------------------------

 Sum of atomic energies:        -114.69436400

      Non-variational initial energy
      ------------------------------

 Total energy =    -117.060705
 1-e energy   =    -278.346042
 2-e energy   =      97.312170
 HOMO         =      -0.210379
 LUMO         =      -0.047674

   Time after variat. SCF:      0.1
   Time prior to 1st pass:      0.1

 Grid_pts file          = ./c3.gridpts.0
 Record size in doubles =  12289        No. of grid_pts per rec  =   3070
 Max. records in memory =     52        Max. recs in file   =    991821


           Memory utilization after 1st SCF pass: 
           Heap Space remaining (MW):       12.47            12465650
          Stack Space remaining (MW):       13.11            13106804

   convergence    iter        energy       DeltaE   RMS-Dens  Diis-err    time
 ---------------- ----- ----------------- --------- --------- ---------  ------
 d= 0,ls=0.0,diis     1   -116.1884989325 -1.80D+02  3.43D-02  3.52D-01     0.5
 d= 0,ls=0.0,diis     2   -116.1460093714  4.25D-02  2.97D-02  5.92D-01     0.7
 d= 0,ls=0.0,diis     3   -116.2110386025 -6.50D-02  9.73D-03  1.40D-01     1.0
 d= 0,ls=0.0,diis     4   -116.2310458886 -2.00D-02  1.32D-03  7.42D-04     1.2
 d= 0,ls=0.0,diis     5   -116.2310206688  2.52D-05  7.69D-04  9.29D-04     1.6
 d= 0,ls=0.0,diis     6   -116.2311552166 -1.35D-04  1.45D-04  2.08D-05     1.8
 d= 0,ls=0.0,diis     7   -116.2311581017 -2.89D-06  3.57D-05  1.41D-06     2.1
 d= 0,ls=0.0,diis     8   -116.2311583118 -2.10D-07  2.72D-06  3.75D-09     2.3


         Total DFT energy =     -116.231158311768
      One electron energy =     -281.016311193095
           Coulomb energy =      118.647894889516
    Exchange-Corr. energy =      -17.835908404713
 Nuclear repulsion energy =       63.973166396523

 Numeric. integr. density =       21.999998312537

     Total iterative time =      2.2s



                       DFT Final Molecular Orbital Analysis
                       ------------------------------------

 Vector    1  Occ=2.000000D+00  E=-9.922987D+00
              MO Center=  4.1D-03, -9.0D-03,  9.4D-03, r^2= 2.9D-02
   Bfn.  Coefficient  Atom+Function         Bfn.  Coefficient  Atom+Function  
  ----- ------------  ---------------      ----- ------------  ---------------
    11      0.688688  2 C  s                 10     -0.358171  2 C  s          

 Vector    2  Occ=2.000000D+00  E=-9.883234D+00
              MO Center= -9.1D-04,  4.0D-01, -2.2D-03, r^2= 1.3D+00
   Bfn.  Coefficient  Atom+Function         Bfn.  Coefficient  Atom+Function  
  ----- ------------  ---------------      ----- ------------  ---------------
    24      0.560763  5 C  s                  2     -0.395567  1 C  s          
    23     -0.293074  5 C  s                  1      0.207186  1 C  s          

 Vector    3  Occ=2.000000D+00  E=-9.881587D+00
              MO Center= -1.1D-03, -4.0D-01, -2.3D-03, r^2= 1.3D+00
   Bfn.  Coefficient  Atom+Function         Bfn.  Coefficient  Atom+Function  
  ----- ------------  ---------------      ----- ------------  ---------------
     2      0.562422  1 C  s                 24      0.398107  5 C  s          
     1     -0.292646  1 C  s                 23     -0.206711  5 C  s          

 Vector    4  Occ=2.000000D+00  E=-7.422292D-01
              MO Center=  3.3D-04, -8.5D-02,  1.4D-03, r^2= 1.3D+00
   Bfn.  Coefficient  Atom+Function         Bfn.  Coefficient  Atom+Function  
  ----- ------------  ---------------      ----- ------------  ---------------
    12      0.555847  2 C  s                  3      0.383537  1 C  s          
    25      0.316972  5 C  s                 11      0.170371  2 C  s          

 Vector    5  Occ=2.000000D+00  E=-6.617272D-01
              MO Center=  1.2D-03,  9.6D-02,  2.0D-03, r^2= 1.8D+00
   Bfn.  Coefficient  Atom+Function         Bfn.  Coefficient  Atom+Function  
  ----- ------------  ---------------      ----- ------------  ---------------
    25     -0.673218  5 C  s                  3      0.638133  1 C  s          
    14     -0.301929  2 C  py                17      0.244315  2 C  py         
    30      0.160567  5 C  py                 8      0.157013  1 C  py         
    24     -0.150521  5 C  s          

 Vector    6  Occ=2.000000D+00  E=-4.647779D-01
              MO Center= -1.5D-03, -1.1D-01, -4.6D-03, r^2= 3.2D+00
   Bfn.  Coefficient  Atom+Function         Bfn.  Coefficient  Atom+Function  
  ----- ------------  ---------------      ----- ------------  ---------------
    12      0.498906  2 C  s                  3     -0.299495  1 C  s          
    25     -0.280700  5 C  s                  5      0.248397  1 C  py         
    27     -0.223892  5 C  py                19     -0.160609  3 H  s          
    21     -0.160083  4 H  s          

 Vector    7  Occ=2.000000D+00  E=-4.416519D-01
              MO Center= -3.2D-04, -1.2D-01, -2.7D-03, r^2= 2.5D+00
   Bfn.  Coefficient  Atom+Function         Bfn.  Coefficient  Atom+Function  
  ----- ------------  ---------------      ----- ------------  ---------------
     4      0.270718  1 C  px                26      0.243951  5 C  px         
    13      0.223731  2 C  px                 7      0.193512  1 C  px         
    29      0.171162  5 C  px                21     -0.169948  4 H  s          
    19      0.167725  3 H  s                 34      0.152204  7 H  s          
    32     -0.150085  6 H  s          

 Vector    8  Occ=2.000000D+00  E=-4.240315D-01
              MO Center= -6.2D-03,  1.0D-01, -2.0D-03, r^2= 2.7D+00
   Bfn.  Coefficient  Atom+Function         Bfn.  Coefficient  Atom+Function  
  ----- ------------  ---------------      ----- ------------  ---------------
    14      0.339392  2 C  py                27     -0.309093  5 C  py         
     5     -0.292421  1 C  py                30     -0.198242  5 C  py         
     8     -0.188159  1 C  py                32     -0.153049  6 H  s          

 Vector    9  Occ=2.000000D+00  E=-3.919171D-01
              MO Center=  2.9D-03,  1.3D-01, -3.5D-03, r^2= 3.0D+00
   Bfn.  Coefficient  Atom+Function         Bfn.  Coefficient  Atom+Function  
  ----- ------------  ---------------      ----- ------------  ---------------
    26      0.264221  5 C  px                 4     -0.238689  1 C  px         
    29      0.221008  5 C  px                 7     -0.203551  1 C  px         
    34      0.201204  7 H  s                 32     -0.199157  6 H  s          
    19     -0.184114  3 H  s                 21      0.182098  4 H  s          

 Vector   10  Occ=2.000000D+00  E=-3.020761D-01
              MO Center=  1.3D-03, -3.1D-02,  5.9D-03, r^2= 1.7D+00
   Bfn.  Coefficient  Atom+Function         Bfn.  Coefficient  Atom+Function  
  ----- ------------  ---------------      ----- ------------  ---------------
    15      0.360547  2 C  pz                18      0.304489  2 C  pz         
     6      0.230103  1 C  pz                28      0.212041  5 C  pz         
     9      0.195243  1 C  pz                31      0.179514  5 C  pz         

 Vector   11  Occ=2.000000D+00  E=-1.647922D-01
              MO Center=  4.6D-04,  3.3D-02, -9.8D-05, r^2= 2.5D+00
   Bfn.  Coefficient  Atom+Function         Bfn.  Coefficient  Atom+Function  
  ----- ------------  ---------------      ----- ------------  ---------------
    31     -0.382425  5 C  pz                 9      0.368178  1 C  pz         
    16     -0.313926  2 C  px                28     -0.307009  5 C  pz         
     6      0.294449  1 C  pz                13     -0.259164  2 C  px         

 Vector   12  Occ=0.000000D+00  E=-7.202141D-02
              MO Center=  1.3D-03, -6.3D-03,  1.5D-03, r^2= 2.6D+00
   Bfn.  Coefficient  Atom+Function         Bfn.  Coefficient  Atom+Function  
  ----- ------------  ---------------      ----- ------------  ---------------
    16      0.590621  2 C  px                13      0.402887  2 C  px         
    31     -0.327660  5 C  pz                 9      0.318291  1 C  pz         
    22      0.288494  4 H  s                 20     -0.284345  3 H  s          
    33      0.271645  6 H  s                 35     -0.268674  7 H  s          
    28     -0.198267  5 C  pz                 6      0.191414  1 C  pz         

 Vector   13  Occ=0.000000D+00  E= 9.167441D-02
              MO Center= -4.6D-03, -2.2D-02, -2.5D-02, r^2= 3.1D+00
   Bfn.  Coefficient  Atom+Function         Bfn.  Coefficient  Atom+Function  
  ----- ------------  ---------------      ----- ------------  ---------------
    18      0.848189  2 C  pz                 9     -0.557376  1 C  pz         
    31     -0.532123  5 C  pz                22      0.515668  4 H  s          
    35      0.505460  7 H  s                  7      0.417233  1 C  px         
    29     -0.405164  5 C  px                15      0.402185  2 C  pz         
    33     -0.309124  6 H  s                 20     -0.300217  3 H  s          

 Vector   14  Occ=0.000000D+00  E= 1.007553D-01
              MO Center=  1.2D-02, -8.8D-02,  3.4D-02, r^2= 5.5D+00
   Bfn.  Coefficient  Atom+Function         Bfn.  Coefficient  Atom+Function  
  ----- ------------  ---------------      ----- ------------  ---------------
     3      0.901907  1 C  s                 25      0.889283  5 C  s          
    20     -0.768293  3 H  s                 33     -0.703971  6 H  s          
    22     -0.599759  4 H  s                 35     -0.559342  7 H  s          
     8     -0.486697  1 C  py                12      0.422062  2 C  s          
    30      0.420765  5 C  py         

 Vector   15  Occ=0.000000D+00  E= 1.192260D-01
              MO Center= -5.5D-04,  1.0D-01, -7.2D-03, r^2= 6.8D+00
   Bfn.  Coefficient  Atom+Function         Bfn.  Coefficient  Atom+Function  
  ----- ------------  ---------------      ----- ------------  ---------------
    17      1.286442  2 C  py                30      1.021505  5 C  py         
     8      0.985768  1 C  py                33     -0.953916  6 H  s          
    35     -0.954268  7 H  s                 20      0.915853  3 H  s          
    22      0.914211  4 H  s                 25      0.270547  5 C  s          
     3     -0.196371  1 C  s                 27      0.164583  5 C  py         

 Vector   16  Occ=0.000000D+00  E= 1.521811D-01
              MO Center= -8.6D-03, -1.8D-01, -1.2D-02, r^2= 6.4D+00
   Bfn.  Coefficient  Atom+Function         Bfn.  Coefficient  Atom+Function  
  ----- ------------  ---------------      ----- ------------  ---------------
    22     -1.166963  4 H  s                 20      1.145724  3 H  s          
    35     -1.024799  7 H  s                 33      1.009871  6 H  s          
     7     -0.831436  1 C  px                29      0.699364  5 C  px         
     9     -0.528292  1 C  pz                18      0.501881  2 C  pz         
    31     -0.497966  5 C  pz                 4     -0.216642  1 C  px         

 Vector   17  Occ=0.000000D+00  E= 1.597455D-01
              MO Center= -9.2D-03,  2.0D-01, -6.3D-03, r^2= 6.6D+00
   Bfn.  Coefficient  Atom+Function         Bfn.  Coefficient  Atom+Function  
  ----- ------------  ---------------      ----- ------------  ---------------
    33      1.220023  6 H  s                 35     -1.217474  7 H  s          
    29      1.092217  5 C  px                22      1.085962  4 H  s          
    20     -1.079386  3 H  s                  7      1.005014  1 C  px         
    16     -0.700780  2 C  px                26      0.256528  5 C  px         
     4      0.230082  1 C  px                31     -0.205601  5 C  pz         

 Vector   18  Occ=0.000000D+00  E= 3.705614D-01
              MO Center=  1.5D-04,  1.3D-02,  2.9D-04, r^2= 4.1D+00
   Bfn.  Coefficient  Atom+Function         Bfn.  Coefficient  Atom+Function  
  ----- ------------  ---------------      ----- ------------  ---------------
    12      2.664531  2 C  s                 30      1.337975  5 C  py         
     8     -1.322430  1 C  py                25     -0.756698  5 C  s          
     3     -0.728903  1 C  s                 11      0.191333  2 C  s          

 Vector   19  Occ=0.000000D+00  E= 4.909772D-01
              MO Center= -4.6D-03, -8.8D-02, -1.4D-02, r^2= 5.3D+00
   Bfn.  Coefficient  Atom+Function         Bfn.  Coefficient  Atom+Function  
  ----- ------------  ---------------      ----- ------------  ---------------
    17      2.192945  2 C  py                 8      1.974904  1 C  py         
    30      1.933786  5 C  py                 3      1.315577  1 C  s          
    25     -1.306501  5 C  s                 33     -0.416738  6 H  s          
    35     -0.412733  7 H  s                 22      0.410061  4 H  s          
    14      0.403474  2 C  py                20      0.403279  3 H  s          

 Vector   20  Occ=0.000000D+00  E= 6.063481D-01
              MO Center= -3.2D-03,  1.2D-01, -9.8D-03, r^2= 1.8D+00
   Bfn.  Coefficient  Atom+Function         Bfn.  Coefficient  Atom+Function  
  ----- ------------  ---------------      ----- ------------  ---------------
    12     -0.770604  2 C  s                 27     -0.746751  5 C  py         
     5      0.733505  1 C  py                 3      0.617952  1 C  s          
    30      0.411164  5 C  py                17      0.363389  2 C  py         
    25      0.285976  5 C  s                 32     -0.155590  6 H  s          
    34     -0.152756  7 H  s          

 Vector   21  Occ=0.000000D+00  E= 6.448620D-01
              MO Center=  4.6D-04, -6.7D-02, -5.1D-03, r^2= 2.4D+00
   Bfn.  Coefficient  Atom+Function         Bfn.  Coefficient  Atom+Function  
  ----- ------------  ---------------      ----- ------------  ---------------
     6      0.598751  1 C  pz                28      0.554383  5 C  pz         
     9     -0.516189  1 C  pz                15      0.512208  2 C  pz         
    31     -0.473542  5 C  pz                18     -0.310557  2 C  pz         


 center of mass
 --------------
 x =   0.00059288 y =  -0.00061141 z =   0.00137390

 moments of inertia (a.u.)
 ------------------
         166.050474581316           0.000000000000          -0.000000000000
           0.000000000000          11.504639484796          -0.000000000000
          -0.000000000000          -0.000000000000         176.089836800639

     Multipole analysis of the density
     ---------------------------------

     L   x y z        total         alpha         beta         nuclear
     -   - - -        -----         -----         ----         -------
     0   0 0 0     -0.000000    -11.000000    -11.000000     22.000000

     1   1 0 0     -0.001476     -0.000738     -0.000738     -0.000000
     1   0 1 0     -0.026511     -0.013256     -0.013256      0.000000
     1   0 0 1     -0.005065     -0.002533     -0.002533     -0.000000

     2   2 0 0    -12.452013    -11.569999    -11.569999     10.687985
     2   1 1 0     -0.001682      0.004464      0.004464     -0.010610
     2   1 0 1     -0.010769     -0.004947     -0.004947     -0.000875
     2   0 2 0    -12.072296    -57.775143    -57.775143    103.477990
     2   0 1 1     -0.002341      0.000607      0.000607     -0.003554
     2   0 0 2    -15.578316     -8.151619     -8.151619      0.724923


 **** WARNING Zero Coefficient **** on atom "               C"
 angular momentum value: 0  standard basis set name: "pcS-0"
 input line that generated warning:
    64:       0.446509E+03           0.399403E-01           0.000000E+00
  

 **** WARNING Zero Coefficient **** on atom "               C"
 angular momentum value: 0  standard basis set name: "pcS-0"
 input line that generated warning:
    67:       0.393876E+01           0.000000E+00          -0.500000E+00
  

            General Information
            -------------------
          SCF calculation type: DFT
          Wavefunction type:  closed shell.
          No. of atoms     :     7
          No. of electrons :    22
           Alpha electrons :    11
            Beta electrons :    11
          Charge           :     0
          Spin multiplicity:     1
          Use of symmetry is: off; symmetry adaption is: off
          Maximum number of iterations: ***
          This is a Direct SCF calculation.
          AO basis - number of functions:    35
                     number of shells:    23
          Convergence on energy requested: 1.00D-06
          Convergence on density requested: 1.00D-05
          Convergence on gradient requested: 5.00D-04

              XC Information
              --------------
                    Becke 1988 Exchange Functional  1.000          
              Lee-Yang-Parr Correlation Functional  1.000          

             Grid Information
             ----------------
          Grid used for XC integration:  medium    
          Radial quadrature: Mura-Knowles        
          Angular quadrature: Lebedev. 
          Tag              B.-S. Rad. Rad. Pts. Rad. Cut. Ang. Pts.
          ---              ---------- --------- --------- ---------
          C                   0.70       49           9.0       434
          H                   0.35       45          10.0       434
          Grid pruning is: on 
          Number of quadrature shells:   327
          Spatial weights used:  Erf1

          Convergence Information
          -----------------------
          Convergence aids based upon iterative change in 
          total energy or number of iterations. 
          Levelshifting, if invoked, occurs when the 
          HOMO/LUMO gap drops below (HL_TOL): 1.00D-02
          DIIS, if invoked, will attempt to extrapolate 
          using up to (NFOCK): 10 stored Fock matrices.

                    Damping( 0%)  Levelshifting(0.0)       DIIS
                  --------------- ------------------- ---------------
          dE  on:    start             N/A                start   
          dE off:    2 iters           N/A              *** iters 


      Screening Tolerance Information
      -------------------------------
          Density screening/tol_rho: 1.00D-10
          AO Gaussian exp screening on grid/accAOfunc:  14
          CD Gaussian exp screening on grid/accCDfunc:  20
          XC Gaussian exp screening on grid/accXCfunc:  20
          Schwarz screening/accCoul: 1.00D-08



                            NWChem DFT Gradient Module
                            --------------------------


                                TDDFT c3 BLYP/pcs0



  charge          =   0.00
  wavefunction    = closed shell



                         DFT ENERGY GRADIENTS

    atom               coordinates                        gradient
                 x          y          z           x          y          z
   1 C      -0.002287  -2.257862  -0.004514   -0.000496   0.172083   0.000281
   2 C       0.007702  -0.016427   0.017852   -0.000815  -0.052698  -0.001112
   3 H       1.628021  -3.244417   0.410265   -0.034134   0.038723  -0.040345
   4 H      -1.641290  -3.221373  -0.438763    0.034540   0.037271   0.041062
   5 C      -0.001429   2.270177  -0.004098    0.000642  -0.122190  -0.000448
   6 H      -1.639836   3.242792   0.411736    0.034430  -0.036937  -0.040429
   7 H       1.629184   3.247666  -0.438670   -0.034167  -0.036253   0.040992

                 ----------------------------------------
                 |  Time  |  1-e(secs)   |  2-e(secs)   |
                 ----------------------------------------
                 |  CPU   |       0.00   |       0.14   |
                 ----------------------------------------
                 |  WALL  |       0.00   |       0.13   |
                 ----------------------------------------

@ Step       Energy      Delta E   Gmax     Grms     Xrms     Xmax   Walltime
@ ---- ---------------- -------- -------- -------- -------- -------- --------
@    0    -116.23115831  0.0D+00  0.24807  0.06360  0.00000  0.00000      3.1
                                                                    



                                Z-matrix (autoz)
                                -------- 

 Units are Angstrom for bonds and degrees for angles

      Type          Name      I     J     K     L     M      Value     Gradient
      ----------- --------  ----- ----- ----- ----- ----- ---------- ----------
    1 Stretch                  1     2                       1.18619   -0.24807
    2 Stretch                  1     3                       1.03200   -0.05671
    3 Stretch                  1     4                       1.03200   -0.05659
    4 Stretch                  2     5                       1.21008   -0.19539
    5 Stretch                  5     6                       1.03200   -0.05596
    6 Stretch                  5     7                       1.03200   -0.05586
    7 Bend                     1     5     6               119.90651   -0.00281
    8 Bend                     1     5     7               120.09042   -0.00235
    9 Bend                     2     1     3               119.99995   -0.00334
   10 Bend                     2     1     4               119.99977   -0.00243
   11 Bend                     2     5     6               120.00045   -0.00281
   12 Bend                     2     5     7               120.00008   -0.00235
   13 Bend                     3     1     4               120.00028    0.00577
   14 Bend                     5     1     3               120.37776   -0.00291
   15 Bend                     5     1     4               119.61957   -0.00287
   16 Bend                     6     5     7               119.99946    0.00515
   17 Torsion                  2     1     3     4        -179.99968   -0.00037
   18 Torsion                  2     1     4     3         179.99968    0.00037
   19 Torsion                  2     5     6     7        -179.99934   -0.00014
   20 Torsion                  2     5     7     6         179.99934    0.00014
   21 Torsion                  3     1     5     6        -151.48764   -0.01423
   22 Torsion                  3     1     5     7          29.20316   -0.01390
   23 Torsion                  1     3     2     5        -177.87398   -0.00016
   24 Torsion                  4     1     5     6          29.07478   -0.01360
   25 Torsion                  4     1     5     7        -150.23441   -0.01327
   26 Torsion                  1     4     2     5         177.97742    0.00000
   27 Torsion                  1     2     6     5        -177.39180    0.00038
   28 Torsion                  1     2     7     5         177.35891   -0.00036

 Restricting large step in mode    1 eval= 5.0D-03 step= 5.5D+00 new= 3.0D-01
 Restricting large step in mode   15 eval= 7.2D-01 step= 3.5D-01 new= 3.0D-01

                                 NWChem DFT Module
                                 -----------------


                                TDDFT c3 BLYP/pcs0



 **** WARNING Zero Coefficient **** on atom "               C"
 angular momentum value: 0  standard basis set name: "pcS-0"
 input line that generated warning:
    64:       0.446509E+03           0.399403E-01           0.000000E+00
  

 **** WARNING Zero Coefficient **** on atom "               C"
 angular momentum value: 0  standard basis set name: "pcS-0"
 input line that generated warning:
    67:       0.393876E+01           0.000000E+00          -0.500000E+00
  


 Summary of "ao basis" -> "ao basis" (spherical)
 ------------------------------------------------------------------------------
       Tag                 Description            Shells   Functions and Types
 ---------------- ------------------------------  ------  ---------------------
 C                           pcS-0                   5        9   3s2p
 H                           pcS-0                   2        2   2s


  Caching 1-el integrals 

            General Information
            -------------------
          SCF calculation type: DFT
          Wavefunction type:  closed shell.
          No. of atoms     :     7
          No. of electrons :    22
           Alpha electrons :    11
            Beta electrons :    11
          Charge           :     0
          Spin multiplicity:     1
          Use of symmetry is: off; symmetry adaption is: off
          Maximum number of iterations: ***
          This is a Direct SCF calculation.
          AO basis - number of functions:    35
                     number of shells:    23
          Convergence on energy requested: 1.00D-06
          Convergence on density requested: 1.00D-05
          Convergence on gradient requested: 5.00D-04

              XC Information
              --------------
                    Becke 1988 Exchange Functional  1.000          
              Lee-Yang-Parr Correlation Functional  1.000          

             Grid Information
             ----------------
          Grid used for XC integration:  medium    
          Radial quadrature: Mura-Knowles        
          Angular quadrature: Lebedev. 
          Tag              B.-S. Rad. Rad. Pts. Rad. Cut. Ang. Pts.
          ---              ---------- --------- --------- ---------
          C                   0.70       49          10.0       434
          H                   0.35       45          11.0       434
          Grid pruning is: on 
          Number of quadrature shells:   327
          Spatial weights used:  Erf1

          Convergence Information
          -----------------------
          Convergence aids based upon iterative change in 
          total energy or number of iterations. 
          Levelshifting, if invoked, occurs when the 
          HOMO/LUMO gap drops below (HL_TOL): 1.00D-02
          DIIS, if invoked, will attempt to extrapolate 
          using up to (NFOCK): 10 stored Fock matrices.

                    Damping( 0%)  Levelshifting(0.0)       DIIS
                  --------------- ------------------- ---------------
          dE  on:    start             N/A                start   
          dE off:    2 iters           N/A              *** iters 


      Screening Tolerance Information
      -------------------------------
          Density screening/tol_rho: 1.00D-10
          AO Gaussian exp screening on grid/accAOfunc:  14
          CD Gaussian exp screening on grid/accCDfunc:  20
          XC Gaussian exp screening on grid/accXCfunc:  20
          Schwarz screening/accCoul: 1.00D-08


 Loading old vectors from job with title :

TDDFT c3 BLYP/pcs0

   Time after variat. SCF:      3.1
   Time prior to 1st pass:      3.1

 Grid_pts file          = ./c3.gridpts.0
 Record size in doubles =  12289        No. of grid_pts per rec  =   3070
 Max. records in memory =     52        Max. recs in file   =    991800


           Memory utilization after 1st SCF pass: 
           Heap Space remaining (MW):       12.47            12465650
          Stack Space remaining (MW):       13.11            13106804

   convergence    iter        energy       DeltaE   RMS-Dens  Diis-err    time
 ---------------- ----- ----------------- --------- --------- ---------  ------
 d= 0,ls=0.0,diis     1   -116.2807538881 -1.74D+02  2.25D-02  1.74D-01     3.5
 d= 0,ls=0.0,diis     2   -116.2914567861 -1.07D-02  8.91D-03  6.07D-02     3.7
 d= 0,ls=0.0,diis     3   -116.2981518681 -6.70D-03  4.30D-03  1.39D-02     4.0
 d= 0,ls=0.0,diis     4   -116.2988126937 -6.61D-04  2.36D-03  1.00D-02     4.2
 d= 0,ls=0.0,diis     5   -116.3003244474 -1.51D-03  2.92D-04  3.06D-05     4.4
 d= 0,ls=0.0,diis     6   -116.3003194381  5.01D-06  1.73D-04  6.23D-05     4.7
 d= 0,ls=0.0,diis     7   -116.3003294358 -1.00D-05  7.60D-06  6.35D-08     4.9
 d= 0,ls=0.0,diis     8   -116.3003294466 -1.07D-08  1.34D-06  1.41D-09     5.1


         Total DFT energy =     -116.300329446556
      One electron energy =     -268.211259683416
           Coulomb energy =      112.064848609833
    Exchange-Corr. energy =      -17.508888434919
 Nuclear repulsion energy =       57.354970061945

 Numeric. integr. density =       21.999997961774

     Total iterative time =      2.0s



                       DFT Final Molecular Orbital Analysis
                       ------------------------------------

 Vector    1  Occ=2.000000D+00  E=-9.960499D+00
              MO Center= -2.1D-03, -4.7D-03,  7.7D-03, r^2= 2.8D-02
   Bfn.  Coefficient  Atom+Function         Bfn.  Coefficient  Atom+Function  
  ----- ------------  ---------------      ----- ------------  ---------------
    11      0.689597  2 C  s                 10     -0.358662  2 C  s          

 Vector    2  Occ=2.000000D+00  E=-9.930452D+00
              MO Center= -1.4D-03,  6.5D-01, -2.2D-03, r^2= 1.4D+00
   Bfn.  Coefficient  Atom+Function         Bfn.  Coefficient  Atom+Function  
  ----- ------------  ---------------      ----- ------------  ---------------
    24      0.591149  5 C  s                  2     -0.350524  1 C  s          
    23     -0.308612  5 C  s                  1      0.183533  1 C  s          

 Vector    3  Occ=2.000000D+00  E=-9.928985D+00
              MO Center= -6.5D-04, -6.4D-01, -2.2D-03, r^2= 1.4D+00
   Bfn.  Coefficient  Atom+Function         Bfn.  Coefficient  Atom+Function  
  ----- ------------  ---------------      ----- ------------  ---------------
     2      0.592606  1 C  s                 24      0.353046  5 C  s          
     1     -0.308395  1 C  s                 23     -0.183190  5 C  s          

 Vector    4  Occ=2.000000D+00  E=-7.006326D-01
              MO Center= -1.9D-03, -6.2D-02,  1.1D-03, r^2= 1.5D+00
   Bfn.  Coefficient  Atom+Function         Bfn.  Coefficient  Atom+Function  
  ----- ------------  ---------------      ----- ------------  ---------------
    12      0.552001  2 C  s                  3      0.393661  1 C  s          
    25      0.354856  5 C  s                 11      0.157473  2 C  s          

 Vector    5  Occ=2.000000D+00  E=-6.289997D-01
              MO Center= -1.9D-03,  7.8D-02,  5.9D-05, r^2= 2.3D+00
   Bfn.  Coefficient  Atom+Function         Bfn.  Coefficient  Atom+Function  
  ----- ------------  ---------------      ----- ------------  ---------------
    25     -0.612213  5 C  s                  3      0.585547  1 C  s          
    14     -0.251110  2 C  py         

 Vector    6  Occ=2.000000D+00  E=-4.657234D-01
              MO Center=  1.7D-04, -6.6D-02, -3.1D-03, r^2= 3.6D+00
   Bfn.  Coefficient  Atom+Function         Bfn.  Coefficient  Atom+Function  
  ----- ------------  ---------------      ----- ------------  ---------------
    12      0.488932  2 C  s                  3     -0.295191  1 C  s          
    25     -0.283149  5 C  s                  5      0.223743  1 C  py         
    27     -0.211722  5 C  py         

 Vector    7  Occ=2.000000D+00  E=-4.083678D-01
              MO Center=  2.6D-03,  5.2D-02, -6.7D-04, r^2= 3.1D+00
   Bfn.  Coefficient  Atom+Function         Bfn.  Coefficient  Atom+Function  
  ----- ------------  ---------------      ----- ------------  ---------------
    14      0.341984  2 C  py                27     -0.299772  5 C  py         
     5     -0.292455  1 C  py                30     -0.202584  5 C  py         
     8     -0.195485  1 C  py                17      0.162121  2 C  py         

 Vector    8  Occ=2.000000D+00  E=-4.026655D-01
              MO Center= -2.3D-03, -6.6D-02, -3.6D-03, r^2= 3.3D+00
   Bfn.  Coefficient  Atom+Function         Bfn.  Coefficient  Atom+Function  
  ----- ------------  ---------------      ----- ------------  ---------------
     4      0.258115  1 C  px                26      0.245623  5 C  px         
     7      0.211141  1 C  px                29      0.199927  5 C  px         
    13      0.185854  2 C  px                21     -0.172357  4 H  s          
    19      0.169954  3 H  s                 34      0.163502  7 H  s          
    32     -0.162127  6 H  s          

 Vector    9  Occ=2.000000D+00  E=-3.738055D-01
              MO Center= -4.8D-03,  7.7D-02, -3.9D-03, r^2= 3.8D+00
   Bfn.  Coefficient  Atom+Function         Bfn.  Coefficient  Atom+Function  
  ----- ------------  ---------------      ----- ------------  ---------------
    26     -0.255126  5 C  px                 4      0.242547  1 C  px         
    29     -0.217413  5 C  px                 7      0.208022  1 C  px         
    32      0.197455  6 H  s                 34     -0.196287  7 H  s          
    21     -0.188672  4 H  s                 19      0.186696  3 H  s          

 Vector   10  Occ=2.000000D+00  E=-2.706399D-01
              MO Center= -1.7D-03, -2.7D-02,  4.2D-03, r^2= 1.9D+00
   Bfn.  Coefficient  Atom+Function         Bfn.  Coefficient  Atom+Function  
  ----- ------------  ---------------      ----- ------------  ---------------
    15      0.353498  2 C  pz                18      0.327855  2 C  pz         
     6      0.226215  1 C  pz                 9      0.221452  1 C  pz         
    28      0.214337  5 C  pz                31      0.210044  5 C  pz         

 Vector   11  Occ=2.000000D+00  E=-1.759145D-01
              MO Center= -1.7D-03,  2.5D-02,  1.3D-05, r^2= 2.7D+00
   Bfn.  Coefficient  Atom+Function         Bfn.  Coefficient  Atom+Function  
  ----- ------------  ---------------      ----- ------------  ---------------
    31     -0.351088  5 C  pz                 9      0.340455  1 C  pz         
    16     -0.339968  2 C  px                13     -0.286944  2 C  px         
    28     -0.286870  5 C  pz                 6      0.277750  1 C  pz         

 Vector   12  Occ=0.000000D+00  E=-9.394322D-02
              MO Center= -2.0D-03,  2.8D-03,  1.6D-03, r^2= 2.7D+00
   Bfn.  Coefficient  Atom+Function         Bfn.  Coefficient  Atom+Function  
  ----- ------------  ---------------      ----- ------------  ---------------
    16      0.541439  2 C  px                13      0.392246  2 C  px         
    31     -0.332623  5 C  pz                 9      0.324736  1 C  pz         
    20     -0.215874  3 H  s                 22      0.215818  4 H  s          
    28     -0.214155  5 C  pz                 6      0.208111  1 C  pz         
    33      0.206112  6 H  s                 35     -0.207074  7 H  s          

 Vector   13  Occ=0.000000D+00  E= 2.915780D-02
              MO Center= -1.6D-03, -1.7D-02,  7.8D-03, r^2= 2.6D+00
   Bfn.  Coefficient  Atom+Function         Bfn.  Coefficient  Atom+Function  
  ----- ------------  ---------------      ----- ------------  ---------------
    18      0.733872  2 C  pz                 9     -0.487346  1 C  pz         
    31     -0.471402  5 C  pz                15      0.421521  2 C  pz         
     7      0.273654  1 C  px                29     -0.268926  5 C  px         
     6     -0.248623  1 C  pz                28     -0.243311  5 C  pz         
    35      0.213437  7 H  s                 22      0.212155  4 H  s          

 Vector   14  Occ=0.000000D+00  E= 7.848633D-02
              MO Center= -4.4D-03, -5.2D-02, -1.9D-03, r^2= 6.3D+00
   Bfn.  Coefficient  Atom+Function         Bfn.  Coefficient  Atom+Function  
  ----- ------------  ---------------      ----- ------------  ---------------
     3      0.973628  1 C  s                 25      0.966052  5 C  s          
    20     -0.635686  3 H  s                 22     -0.616287  4 H  s          
    33     -0.612098  6 H  s                 35     -0.586270  7 H  s          
     8     -0.343390  1 C  py                30      0.304950  5 C  py         

 Vector   15  Occ=0.000000D+00  E= 9.611811D-02
              MO Center=  1.8D-03,  6.2D-02, -6.5D-03, r^2= 7.3D+00
   Bfn.  Coefficient  Atom+Function         Bfn.  Coefficient  Atom+Function  
  ----- ------------  ---------------      ----- ------------  ---------------
    17      0.961041  2 C  py                30      0.877047  5 C  py         
     8      0.866096  1 C  py                33     -0.817381  6 H  s          
    35     -0.819244  7 H  s                 20      0.801393  3 H  s          
    22      0.796257  4 H  s                 25      0.459730  5 C  s          
     3     -0.416477  1 C  s                  5      0.166328  1 C  py         

 Vector   16  Occ=0.000000D+00  E= 1.276152D-01
              MO Center= -4.5D-03, -1.2D-02, -1.1D-02, r^2= 7.2D+00
   Bfn.  Coefficient  Atom+Function         Bfn.  Coefficient  Atom+Function  
  ----- ------------  ---------------      ----- ------------  ---------------
    22     -1.011223  4 H  s                 20      0.997832  3 H  s          
    35     -0.999313  7 H  s                 33      0.991070  6 H  s          
     7     -0.760248  1 C  px                29      0.748467  5 C  px         
     9     -0.382969  1 C  pz                31     -0.378910  5 C  pz         
    18      0.287743  2 C  pz                 4     -0.235575  1 C  px         

 Vector   17  Occ=0.000000D+00  E= 1.466457D-01
              MO Center=  1.2D-03,  2.6D-02, -6.7D-03, r^2= 7.3D+00
   Bfn.  Coefficient  Atom+Function         Bfn.  Coefficient  Atom+Function  
  ----- ------------  ---------------      ----- ------------  ---------------
    33     -1.040735  6 H  s                 35      1.043891  7 H  s          
    20      1.030249  3 H  s                 22     -1.029470  4 H  s          
    29     -0.913571  5 C  px                 7     -0.908355  1 C  px         
    16      0.532412  2 C  px                26     -0.272122  5 C  px         
     4     -0.269344  1 C  px                31      0.202413  5 C  pz         

 Vector   18  Occ=0.000000D+00  E= 2.707995D-01
              MO Center= -1.9D-04,  5.0D-02,  1.2D-03, r^2= 2.6D+00
   Bfn.  Coefficient  Atom+Function         Bfn.  Coefficient  Atom+Function  
  ----- ------------  ---------------      ----- ------------  ---------------
    12      2.146737  2 C  s                 30      0.997661  5 C  py         
     8     -0.940552  1 C  py                25     -0.502861  5 C  s          
     3     -0.452225  1 C  s                 27      0.282611  5 C  py         
     5     -0.276908  1 C  py                33     -0.262271  6 H  s          
    20     -0.253758  3 H  s                 35     -0.252603  7 H  s          

 Vector   19  Occ=0.000000D+00  E= 4.689124D-01
              MO Center= -8.3D-04, -1.7D-01, -9.1D-03, r^2= 5.3D+00
   Bfn.  Coefficient  Atom+Function         Bfn.  Coefficient  Atom+Function  
  ----- ------------  ---------------      ----- ------------  ---------------
    17      2.709822  2 C  py                 8      2.093274  1 C  py         
    30      1.942591  5 C  py                 3      1.541168  1 C  s          
    25     -1.468442  5 C  s                 14      0.488654  2 C  py         
    20      0.449970  3 H  s                 22      0.440545  4 H  s          
    35     -0.426598  7 H  s                 33     -0.421985  6 H  s          

 Vector   20  Occ=0.000000D+00  E= 5.540253D-01
              MO Center= -1.4D-03,  2.1D-01, -6.4D-03, r^2= 4.0D+00
   Bfn.  Coefficient  Atom+Function         Bfn.  Coefficient  Atom+Function  
  ----- ------------  ---------------      ----- ------------  ---------------
    30      1.086755  5 C  py                 8     -0.837382  1 C  py         
    12      0.792749  2 C  s                 27     -0.652806  5 C  py         
     5      0.638204  1 C  py                32     -0.252338  6 H  s          
    34     -0.243358  7 H  s                 17      0.212724  2 C  py         
    19     -0.171823  3 H  s                 21     -0.166801  4 H  s          

 Vector   21  Occ=0.000000D+00  E= 6.240187D-01
              MO Center=  2.3D-02, -6.2D-01,  5.4D-03, r^2= 4.1D+00
   Bfn.  Coefficient  Atom+Function         Bfn.  Coefficient  Atom+Function  
  ----- ------------  ---------------      ----- ------------  ---------------
    19      0.707255  3 H  s                 21      0.673405  4 H  s          
    14     -0.487921  2 C  py                32     -0.448521  6 H  s          
    34     -0.448349  7 H  s                 20     -0.408176  3 H  s          
    22     -0.389329  4 H  s                 33      0.278815  6 H  s          
    35      0.279508  7 H  s                  3     -0.189680  1 C  s          


 center of mass
 --------------
 x =  -0.00266732 y =   0.00195596 z =   0.00060778

 moments of inertia (a.u.)
 ------------------
         211.734349726438           0.136199965082           0.006089269029
           0.136199965082          12.855807017742          -0.012518043903
           0.006089269029          -0.012518043903         222.424339016861

     Multipole analysis of the density
     ---------------------------------

     L   x y z        total         alpha         beta         nuclear
     -   - - -        -----         -----         ----         -------
     0   0 0 0     -0.000000    -11.000000    -11.000000     22.000000

     1   1 0 0     -0.000320      0.029522      0.029522     -0.059365
     1   0 1 0     -0.011195     -0.028972     -0.028972      0.046749
     1   0 0 1     -0.004541      0.004704      0.004704     -0.013950

     2   2 0 0    -13.163143    -12.422375    -12.422375     11.681607
     2   1 1 0     -0.004651      0.043152      0.043152     -0.090954
     2   1 0 1     -0.009605     -0.001877     -0.001877     -0.005850
     2   0 2 0    -11.262405    -71.533903    -71.533903    131.805401
     2   0 1 1      0.001415     -0.006050     -0.006050      0.013515
     2   0 0 2    -16.150909     -8.611979     -8.611979      1.073050

 Line search: 
     step= 1.00 grad=-1.7D-01 hess= 1.0D-01 energy=   -116.300329 mode=downhill
 new step= 0.83                   predicted energy=   -116.303256

          --------
          Step   1
          --------


                         Geometry "geometry" -> "geometry"
                         ---------------------------------

 Output coordinates in angstroms (scale by  1.889725989 to convert to a.u.)

  No.       Tag          Charge          X              Y              Z
 ---- ---------------- ---------- -------------- -------------- --------------
    1 C                    6.0000    -0.00041162    -1.32326196    -0.00221844
    2 C                    6.0000    -0.00111388    -0.00532518     0.00806030
    3 H                    1.0000     0.89578722    -1.89903699     0.25744397
    4 H                    1.0000    -0.89979228    -1.88872624    -0.27275638
    5 C                    6.0000    -0.00160378     1.33050874    -0.00217022
    6 H                    1.0000    -0.90008410     1.90028141     0.25930233
    7 H                    1.0000     0.89666973     1.89643855    -0.27210632

      Atomic Mass 
      ----------- 

      C                 12.000000
      H                  1.007825


 Effective nuclear repulsion energy (a.u.)      58.3651232846

            Nuclear Dipole moment (a.u.) 
            ----------------------------
        X                 Y               Z
 ---------------- ---------------- ----------------
    -0.0495015684     0.0387135781    -0.0115019002


                                 NWChem DFT Module
                                 -----------------


                                TDDFT c3 BLYP/pcs0



 **** WARNING Zero Coefficient **** on atom "               C"
 angular momentum value: 0  standard basis set name: "pcS-0"
 input line that generated warning:
    64:       0.446509E+03           0.399403E-01           0.000000E+00
  

 **** WARNING Zero Coefficient **** on atom "               C"
 angular momentum value: 0  standard basis set name: "pcS-0"
 input line that generated warning:
    67:       0.393876E+01           0.000000E+00          -0.500000E+00
  


 Summary of "ao basis" -> "ao basis" (spherical)
 ------------------------------------------------------------------------------
       Tag                 Description            Shells   Functions and Types
 ---------------- ------------------------------  ------  ---------------------
 C                           pcS-0                   5        9   3s2p
 H                           pcS-0                   2        2   2s


  Caching 1-el integrals 

            General Information
            -------------------
          SCF calculation type: DFT
          Wavefunction type:  closed shell.
          No. of atoms     :     7
          No. of electrons :    22
           Alpha electrons :    11
            Beta electrons :    11
          Charge           :     0
          Spin multiplicity:     1
          Use of symmetry is: off; symmetry adaption is: off
          Maximum number of iterations: ***
          This is a Direct SCF calculation.
          AO basis - number of functions:    35
                     number of shells:    23
          Convergence on energy requested: 1.00D-06
          Convergence on density requested: 1.00D-05
          Convergence on gradient requested: 5.00D-04

              XC Information
              --------------
                    Becke 1988 Exchange Functional  1.000          
              Lee-Yang-Parr Correlation Functional  1.000          

             Grid Information
             ----------------
          Grid used for XC integration:  medium    
          Radial quadrature: Mura-Knowles        
          Angular quadrature: Lebedev. 
          Tag              B.-S. Rad. Rad. Pts. Rad. Cut. Ang. Pts.
          ---              ---------- --------- --------- ---------
          C                   0.70       49          10.0       434
          H                   0.35       45          11.0       434
          Grid pruning is: on 
          Number of quadrature shells:   327
          Spatial weights used:  Erf1

          Convergence Information
          -----------------------
          Convergence aids based upon iterative change in 
          total energy or number of iterations. 
          Levelshifting, if invoked, occurs when the 
          HOMO/LUMO gap drops below (HL_TOL): 1.00D-02
          DIIS, if invoked, will attempt to extrapolate 
          using up to (NFOCK): 10 stored Fock matrices.

                    Damping( 0%)  Levelshifting(0.0)       DIIS
                  --------------- ------------------- ---------------
          dE  on:    start             N/A                start   
          dE off:    2 iters           N/A              *** iters 


      Screening Tolerance Information
      -------------------------------
          Density screening/tol_rho: 1.00D-10
          AO Gaussian exp screening on grid/accAOfunc:  14
          CD Gaussian exp screening on grid/accCDfunc:  20
          XC Gaussian exp screening on grid/accXCfunc:  20
          Schwarz screening/accCoul: 1.00D-08


 Loading old vectors from job with title :

TDDFT c3 BLYP/pcs0

   Time after variat. SCF:      5.2
   Time prior to 1st pass:      5.2

 Grid_pts file          = ./c3.gridpts.0
 Record size in doubles =  12289        No. of grid_pts per rec  =   3070
 Max. records in memory =     52        Max. recs in file   =    991800


           Memory utilization after 1st SCF pass: 
           Heap Space remaining (MW):       12.47            12465650
          Stack Space remaining (MW):       13.11            13106804

   convergence    iter        energy       DeltaE   RMS-Dens  Diis-err    time
 ---------------- ----- ----------------- --------- --------- ---------  ------
 d= 0,ls=0.0,diis     1   -116.3000310759 -1.75D+02  3.70D-03  4.12D-03     5.5
 d= 0,ls=0.0,diis     2   -116.3002955802 -2.65D-04  1.39D-03  1.49D-03     5.8
 d= 0,ls=0.0,diis     3   -116.3004615720 -1.66D-04  6.66D-04  3.17D-04     6.0
 d= 0,ls=0.0,diis     4   -116.3004755707 -1.40D-05  3.70D-04  2.37D-04     6.3
 d= 0,ls=0.0,diis     5   -116.3005108933 -3.53D-05  3.22D-05  4.46D-07     6.5
 d= 0,ls=0.0,diis     6   -116.3005108783  1.50D-08  1.76D-05  5.76D-07     6.7
 d= 0,ls=0.0,diis     7   -116.3005109694 -9.11D-08  1.48D-06  3.82D-09     7.0


         Total DFT energy =     -116.300510969427
      One electron energy =     -270.184739822141
           Coulomb energy =      113.077465727475
    Exchange-Corr. energy =      -17.558360159332
 Nuclear repulsion energy =       58.365123284571

 Numeric. integr. density =       21.999998940771

     Total iterative time =      1.8s



                       DFT Final Molecular Orbital Analysis
                       ------------------------------------

 Vector    1  Occ=2.000000D+00  E=-9.954532D+00
              MO Center= -1.1D-03, -5.4D-03,  8.1D-03, r^2= 2.8D-02
   Bfn.  Coefficient  Atom+Function         Bfn.  Coefficient  Atom+Function  
  ----- ------------  ---------------      ----- ------------  ---------------
    11      0.689481  2 C  s                 10     -0.358618  2 C  s          

 Vector    2  Occ=2.000000D+00  E=-9.923110D+00
              MO Center= -1.3D-03,  6.5D-01, -2.2D-03, r^2= 1.4D+00
   Bfn.  Coefficient  Atom+Function         Bfn.  Coefficient  Atom+Function  
  ----- ------------  ---------------      ----- ------------  ---------------
    24      0.593428  5 C  s                  2     -0.346334  1 C  s          
    23     -0.309851  5 C  s                  1      0.181403  1 C  s          

 Vector    3  Occ=2.000000D+00  E=-9.921582D+00
              MO Center= -7.2D-04, -6.5D-01, -2.2D-03, r^2= 1.4D+00
   Bfn.  Coefficient  Atom+Function         Bfn.  Coefficient  Atom+Function  
  ----- ------------  ---------------      ----- ------------  ---------------
     2      0.594900  1 C  s                 24      0.348934  5 C  s          
     1     -0.309623  1 C  s                 23     -0.181042  5 C  s          

 Vector    4  Occ=2.000000D+00  E=-7.076461D-01
              MO Center= -1.5D-03, -6.7D-02,  1.2D-03, r^2= 1.5D+00
   Bfn.  Coefficient  Atom+Function         Bfn.  Coefficient  Atom+Function  
  ----- ------------  ---------------      ----- ------------  ---------------
    12      0.553057  2 C  s                  3      0.391698  1 C  s          
    25      0.348561  5 C  s                 11      0.159411  2 C  s          

 Vector    5  Occ=2.000000D+00  E=-6.343819D-01
              MO Center= -1.5D-03,  8.2D-02,  3.6D-04, r^2= 2.2D+00
   Bfn.  Coefficient  Atom+Function         Bfn.  Coefficient  Atom+Function  
  ----- ------------  ---------------      ----- ------------  ---------------
    25     -0.621887  5 C  s                  3      0.593534  1 C  s          
    14     -0.259787  2 C  py         

 Vector    6  Occ=2.000000D+00  E=-4.658225D-01
              MO Center= -2.4D-05, -7.2D-02, -3.4D-03, r^2= 3.5D+00
   Bfn.  Coefficient  Atom+Function         Bfn.  Coefficient  Atom+Function  
  ----- ------------  ---------------      ----- ------------  ---------------
    12      0.488970  2 C  s                  3     -0.295950  1 C  s          
    25     -0.282833  5 C  s                  5      0.227519  1 C  py         
    27     -0.214057  5 C  py                19     -0.151747  3 H  s          
    21     -0.150462  4 H  s          

 Vector    7  Occ=2.000000D+00  E=-4.113657D-01
              MO Center=  1.6D-03,  5.8D-02, -1.6D-03, r^2= 3.0D+00
   Bfn.  Coefficient  Atom+Function         Bfn.  Coefficient  Atom+Function  
  ----- ------------  ---------------      ----- ------------  ---------------
    14      0.342077  2 C  py                27     -0.301301  5 C  py         
     5     -0.292907  1 C  py                30     -0.202138  5 C  py         
     8     -0.194563  1 C  py                17      0.154817  2 C  py         

 Vector    8  Occ=2.000000D+00  E=-4.083163D-01
              MO Center= -1.9D-03, -7.8D-02, -2.7D-03, r^2= 3.1D+00
   Bfn.  Coefficient  Atom+Function         Bfn.  Coefficient  Atom+Function  
  ----- ------------  ---------------      ----- ------------  ---------------
     4      0.260383  1 C  px                26      0.245130  5 C  px         
     7      0.209734  1 C  px                29      0.196224  5 C  px         
    13      0.192011  2 C  px                21     -0.171585  4 H  s          
    19      0.170334  3 H  s                 32     -0.160531  6 H  s          
    34      0.160853  7 H  s          

 Vector    9  Occ=2.000000D+00  E=-3.766345D-01
              MO Center= -3.9D-03,  9.0D-02, -3.8D-03, r^2= 3.6D+00
   Bfn.  Coefficient  Atom+Function         Bfn.  Coefficient  Atom+Function  
  ----- ------------  ---------------      ----- ------------  ---------------
    26     -0.257060  5 C  px                 4      0.241848  1 C  px         
    29     -0.218688  5 C  px                 7      0.207343  1 C  px         
    32      0.198225  6 H  s                 34     -0.197401  7 H  s          
    21     -0.187670  4 H  s                 19      0.186187  3 H  s          

 Vector   10  Occ=2.000000D+00  E=-2.753861D-01
              MO Center= -1.2D-03, -2.8D-02,  4.5D-03, r^2= 1.9D+00
   Bfn.  Coefficient  Atom+Function         Bfn.  Coefficient  Atom+Function  
  ----- ------------  ---------------      ----- ------------  ---------------
    15      0.354649  2 C  pz                18      0.324444  2 C  pz         
     6      0.226846  1 C  pz                 9      0.217669  1 C  pz         
    28      0.213998  5 C  pz                31      0.205497  5 C  pz         

 Vector   11  Occ=2.000000D+00  E=-1.745003D-01
              MO Center= -1.3D-03,  2.7D-02, -1.6D-07, r^2= 2.6D+00
   Bfn.  Coefficient  Atom+Function         Bfn.  Coefficient  Atom+Function  
  ----- ------------  ---------------      ----- ------------  ---------------
    31     -0.355675  5 C  pz                 9      0.344401  1 C  pz         
    16     -0.336542  2 C  px                28     -0.289750  5 C  pz         
    13     -0.282932  2 C  px                 6      0.280037  1 C  pz         

 Vector   12  Occ=0.000000D+00  E=-9.078837D-02
              MO Center= -1.4D-03,  1.8D-03,  1.6D-03, r^2= 2.7D+00
   Bfn.  Coefficient  Atom+Function         Bfn.  Coefficient  Atom+Function  
  ----- ------------  ---------------      ----- ------------  ---------------
    16      0.548635  2 C  px                13      0.393385  2 C  px         
    31     -0.332437  5 C  pz                 9      0.324196  1 C  pz         
    20     -0.224931  3 H  s                 22      0.225456  4 H  s          
    33      0.214838  6 H  s                 35     -0.215295  7 H  s          
    28     -0.212004  5 C  pz                 6      0.205736  1 C  pz         

 Vector   13  Occ=0.000000D+00  E= 3.884905D-02
              MO Center= -1.3D-03, -1.7D-02,  7.3D-03, r^2= 2.6D+00
   Bfn.  Coefficient  Atom+Function         Bfn.  Coefficient  Atom+Function  
  ----- ------------  ---------------      ----- ------------  ---------------
    18      0.755226  2 C  pz                 9     -0.502242  1 C  pz         
    31     -0.484850  5 C  pz                15      0.420804  2 C  pz         
     7      0.287515  1 C  px                29     -0.282231  5 C  px         
     6     -0.245002  1 C  pz                28     -0.239582  5 C  pz         
    22      0.234532  4 H  s                 35      0.235602  7 H  s          

 Vector   14  Occ=0.000000D+00  E= 8.320639D-02
              MO Center= -3.1D-03, -6.0D-02, -1.1D-03, r^2= 6.2D+00
   Bfn.  Coefficient  Atom+Function         Bfn.  Coefficient  Atom+Function  
  ----- ------------  ---------------      ----- ------------  ---------------
     3      0.964936  1 C  s                 25      0.955632  5 C  s          
    20     -0.653699  3 H  s                 22     -0.629461  4 H  s          
    33     -0.623796  6 H  s                 35     -0.596217  7 H  s          
     8     -0.376582  1 C  py                30      0.332921  5 C  py         

 Vector   15  Occ=0.000000D+00  E= 1.001337D-01
              MO Center=  6.0D-04,  7.1D-02, -6.6D-03, r^2= 7.2D+00
   Bfn.  Coefficient  Atom+Function         Bfn.  Coefficient  Atom+Function  
  ----- ------------  ---------------      ----- ------------  ---------------
    17      1.016715  2 C  py                30      0.904167  5 C  py         
     8      0.889471  1 C  py                33     -0.839653  6 H  s          
    35     -0.840752  7 H  s                 20      0.818897  3 H  s          
    22      0.815069  4 H  s                 25      0.431356  5 C  s          
     3     -0.381967  1 C  s                  5      0.165893  1 C  py         

 Vector   16  Occ=0.000000D+00  E= 1.316936D-01
              MO Center= -4.1D-03, -2.0D-02, -1.1D-02, r^2= 7.1D+00
   Bfn.  Coefficient  Atom+Function         Bfn.  Coefficient  Atom+Function  
  ----- ------------  ---------------      ----- ------------  ---------------
    22     -1.033093  4 H  s                 20      1.020394  3 H  s          
    35     -1.016814  7 H  s                 33      1.008014  6 H  s          
     7     -0.769992  1 C  px                29      0.753478  5 C  px         
     9     -0.395908  1 C  pz                31     -0.390405  5 C  pz         
    18      0.308407  2 C  pz                 4     -0.232472  1 C  px         

 Vector   17  Occ=0.000000D+00  E= 1.495099D-01
              MO Center= -1.4D-04,  3.4D-02, -6.7D-03, r^2= 7.2D+00
   Bfn.  Coefficient  Atom+Function         Bfn.  Coefficient  Atom+Function  
  ----- ------------  ---------------      ----- ------------  ---------------
    33     -1.063980  6 H  s                 35      1.066338  7 H  s          
    20      1.048294  3 H  s                 22     -1.048217  4 H  s          
    29     -0.935854  5 C  px                 7     -0.928000  1 C  px         
    16      0.556174  2 C  px                26     -0.268353  5 C  px         
     4     -0.264463  1 C  px                31      0.199708  5 C  pz         

 Vector   18  Occ=0.000000D+00  E= 2.934376D-01
              MO Center=  1.7D-04,  5.4D-02,  1.5D-03, r^2= 2.7D+00
   Bfn.  Coefficient  Atom+Function         Bfn.  Coefficient  Atom+Function  
  ----- ------------  ---------------      ----- ------------  ---------------
    12      2.271524  2 C  s                 30      1.060261  5 C  py         
     8     -0.997264  1 C  py                25     -0.574199  5 C  s          
     3     -0.518109  1 C  s                 27      0.250441  5 C  py         
     5     -0.245220  1 C  py                33     -0.241738  6 H  s          
    35     -0.234398  7 H  s                 20     -0.231984  3 H  s          

 Vector   19  Occ=0.000000D+00  E= 4.755308D-01
              MO Center= -1.7D-03, -2.1D-01, -1.1D-02, r^2= 5.4D+00
   Bfn.  Coefficient  Atom+Function         Bfn.  Coefficient  Atom+Function  
  ----- ------------  ---------------      ----- ------------  ---------------
    17      2.687253  2 C  py                 8      2.119075  1 C  py         
    30      1.944763  5 C  py                 3      1.541704  1 C  s          
    25     -1.467852  5 C  s                 14      0.460970  2 C  py         
    20      0.444018  3 H  s                 22      0.438071  4 H  s          
    35     -0.424217  7 H  s                 33     -0.421099  6 H  s          

 Vector   20  Occ=0.000000D+00  E= 5.490820D-01
              MO Center= -1.8D-03,  2.4D-01, -7.2D-03, r^2= 3.8D+00
   Bfn.  Coefficient  Atom+Function         Bfn.  Coefficient  Atom+Function  
  ----- ------------  ---------------      ----- ------------  ---------------
    30      1.049662  5 C  py                 8     -0.734553  1 C  py         
    27     -0.669666  5 C  py                 5      0.648498  1 C  py         
    12      0.645215  2 C  s                 17      0.259822  2 C  py         
    32     -0.246426  6 H  s                 34     -0.238074  7 H  s          
     3      0.191248  1 C  s                 19     -0.161933  3 H  s          

 Vector   21  Occ=0.000000D+00  E= 6.354884D-01
              MO Center=  2.0D-02, -1.6D+00, -1.4D-03, r^2= 2.0D+00
   Bfn.  Coefficient  Atom+Function         Bfn.  Coefficient  Atom+Function  
  ----- ------------  ---------------      ----- ------------  ---------------
    19      0.868861  3 H  s                 21      0.847404  4 H  s          
    20     -0.488241  3 H  s                 22     -0.476156  4 H  s          
    14     -0.354340  2 C  py                 5      0.291888  1 C  py         
     3     -0.275641  1 C  s                 12      0.171130  2 C  s          
    17      0.150681  2 C  py         


 center of mass
 --------------
 x =  -0.00212564 y =   0.00151466 z =   0.00074224

 moments of inertia (a.u.)
 ------------------
         203.673443679857           0.109486056683           0.004971435302
           0.109486056683          12.629138752425          -0.010904424944
           0.004971435302          -0.010904424944         214.266730872214

     Multipole analysis of the density
     ---------------------------------

     L   x y z        total         alpha         beta         nuclear
     -   - - -        -----         -----         ----         -------
     0   0 0 0     -0.000000    -11.000000    -11.000000     22.000000

     1   1 0 0     -0.000689      0.024407      0.024407     -0.049502
     1   0 1 0     -0.013206     -0.025960     -0.025960      0.038714
     1   0 0 1     -0.004588      0.003457      0.003457     -0.011502

     2   2 0 0    -13.054973    -12.288064    -12.288064     11.521156
     2   1 1 0     -0.003736      0.035816      0.035816     -0.075368
     2   1 0 1     -0.009745     -0.002423     -0.002423     -0.004899
     2   0 2 0    -11.419263    -69.112096    -69.112096    126.804928
     2   0 1 1      0.000783     -0.004986     -0.004986      0.010756
     2   0 0 2    -16.062035     -8.535253     -8.535253      1.008471


 **** WARNING Zero Coefficient **** on atom "               C"
 angular momentum value: 0  standard basis set name: "pcS-0"
 input line that generated warning:
[...]
  --- via the Eckart algorithm                      ---
 Projected Nuclear Hessian trans-rot subspace norm:5.0735D-33
                         (should be close to zero!) 

          --------------------------------------------------------
          MASS-WEIGHTED PROJECTED HESSIAN (Hartree/Bohr/Bohr/Kamu)
          --------------------------------------------------------


               1            2            3            4            5            6            7            8            9           10
   ----- ----- ----- ----- -----
    1    2.72619D+01
    2   -3.18410D-02  6.88496D+01
    3    1.91780D+01  1.82406D-02  2.72460D+01
    4   -5.51689D+00  1.11709D-02 -1.63056D+00  9.56165D+00
    5    8.92525D-03 -4.88332D+01 -3.60137D-02 -1.10456D-02  1.05906D+02
    6   -1.63129D+00 -3.20216D-02 -5.51649D+00 -3.83239D-03  3.95314D-02  9.56119D+00
    7   -3.95419D+01  2.45886D+01 -3.07908D+01  1.26946D+00 -6.18337D-02  1.06284D-01  1.37234D+02
    8    2.40124D+01 -3.40063D+01  2.39892D+01  5.28830D+00 -7.10959D+00  5.28462D+00 -9.13228D+01  1.29963D+02
    9   -3.07963D+01  2.45743D+01 -3.95013D+01  1.15336D-01 -7.74820D-02  1.27533D+00  1.18645D+02 -9.12271D+01  1.37069D+02
   10   -3.95798D+01 -2.45232D+01 -3.08491D+01  1.27294D+00  6.43959D-02  1.06814D-01 -6.60518D+00 -8.95037D+00 -1.08862D+01  1.37383D+02
   11   -2.39331D+01 -3.38625D+01 -2.39351D+01 -5.29749D+00 -7.11102D+00 -5.29914D+00  8.94846D+00  1.00488D+01  8.94856D+00  9.10775D+01
   12   -3.08424D+01 -2.45130D+01 -3.95668D+01  9.69792D-02  4.86153D-02  1.26720D+00 -1.08825D+01 -8.94482D+00 -6.59591D+00  1.18857D+02
   13    9.33852D-01  8.08260D-04 -2.93430D-03 -5.51944D+00  1.35023D-03  1.63535D+00  4.39955D-01 -6.67487D-02 -5.48369D-01  4.35063D-01
   14   -1.68390D-04 -6.25640D-01  2.39103D-03  5.39914D-03 -4.88268D+01 -3.38466D-03 -6.28112D-01  4.59525D-01 -6.27708D-01  6.31697D-01
   15   -2.72258D-03 -3.66455D-03  9.33757D-01  1.63462D+00  7.97418D-04 -5.51951D+00 -5.48568D-01 -6.82404D-02  4.41163D-01 -5.43707D-01
   16    4.34695D-01 -6.31731D-01  5.52465D-01  1.27131D+00 -2.46919D-02 -1.07692D-01 -3.57804D+00 -3.57313D-01  3.56354D+00  3.49456D+00
   17   -6.61319D-02  4.79244D-01  6.59006D-02  5.29090D+00 -7.11257D+00 -5.29543D+00 -3.46621D-01  1.38044D-01  2.59144D-01 -2.55330D-01
   18    5.52401D-01  6.31673D-01  4.37680D-01 -1.11172D-01  3.17576D-02  1.27186D+00 -3.56239D+00 -2.54648D-01  3.49726D+00  3.55920D+00
   19    4.30677D-01  6.34873D-01  5.47883D-01  1.27487D+00  2.47869D-02 -1.06180D-01  3.49494D+00 -2.45064D-01 -3.56204D+00 -3.59127D+00
   20    6.64983D-02  4.79497D-01 -6.69304D-02 -5.30077D+00 -7.12028D+00  5.29572D+00  2.55809D-01  1.40161D-01 -3.44121D-01  3.46494D-01
   21    5.48479D-01 -6.32786D-01  4.28091D-01 -1.01925D-01 -1.77809D-02  1.27459D+00  3.57310D+00 -3.51094D-01 -3.58901D+00 -3.57370D+00


              11           12           13           14           15           16           17           18           19           20
   ----- ----- ----- ----- -----
   11    1.29467D+02
   12    9.10944D+01  1.37341D+02
   13    7.04706D-02 -5.44447D-01  2.72528D+01
   14    4.58492D-01  6.29825D-01 -8.67434D-03  6.88535D+01
   15    6.92081D-02  4.34609D-01 -1.91737D+01  1.64515D-02  2.72426D+01
   16    2.49450D-01 -3.57492D+00 -3.95185D+01  2.45141D+01  3.07994D+01  1.37199D+02
   17    1.41471D-01  3.49552D-01  2.39676D+01 -3.39652D+01 -2.39752D+01 -9.11734D+01  1.29772D+02
   18    3.52049D-01 -3.59175D+00  3.08049D+01 -2.45292D+01 -3.95379D+01 -1.18727D+02  9.12063D+01  1.37259D+02
   19    3.45417D-01  3.56984D+00 -3.95728D+01 -2.45058D+01  3.08232D+01 -6.63917D+00 -8.95678D+00  1.09116D+01  1.37401D+02
   20    1.45555D-01 -2.54905D-01 -2.39489D+01 -3.38988D+01  2.39273D+01  8.95742D+00  1.00387D+01 -8.95185D+00  9.11405D+01  1.29563D+02
   21    2.42692D-01  3.50442D+00  3.08165D+01  2.44737D+01 -3.95181D+01  1.09264D+01  8.95955D+00 -6.63319D+00 -1.18803D+02 -9.10560D+01


              21
   ----- ----- ----- ----- -----
   21    1.37205D+02

 center of mass
 --------------
 x =  -0.00290717 y =   0.00304109 z =  -0.00619631

 moments of inertia (a.u.)
 ------------------
         206.308195770754           0.031675901192           0.000804838824
           0.031675901192          12.627195643292          -0.079783247585
           0.000804838824          -0.079783247585         206.313023200113

 Rotational Constants
 --------------------
 A=   4.767516 cm-1  (  6.859239 K)
 B=   0.291797 cm-1  (  0.419822 K)
 C=   0.291790 cm-1  (  0.419812 K)


 Temperature                      =     0.00K
 frequency scaling parameter      =   1.0000

 Zero-Point correction to Energy  =   34.084 kcal/mol  (  0.054317 au)
 Thermal correction to Energy     =   34.084 kcal/mol  (  0.054317 au)
 Thermal correction to Enthalpy   =   34.084 kcal/mol  (  0.054317 au)

 Total Entropy                    =     -Inf cal/mol-K
   - Translational                =     -Inf cal/mol-K (mol. weight =  40.0313)
   - Rotational                   =     -Inf cal/mol-K (symmetry #  =        1)
   - Vibrational                  =    0.000 cal/mol-K

 Cv (constant volume heat capacity) =    5.959 cal/mol-K
   - Translational                  =    2.979 cal/mol-K
   - Rotational                     =    2.979 cal/mol-K
   - Vibrational                    =    0.000 cal/mol-K



          -------------------------------------------------
          NORMAL MODE EIGENVECTORS IN CARTESIAN COORDINATES
          -------------------------------------------------
             (Projected Frequencies expressed in cm-1)

                    1           2           3           4           5           6
 
 P.Frequency       -0.00        0.00        0.00        0.00        0.00        0.00
 
           1     0.02717     0.00181    -0.23236    -0.00040    -0.01468    -0.00258
           2     0.00090    -0.00083    -0.00032     0.15803     0.00180     0.00107
           3    -0.02776    -0.22218    -0.00053    -0.00026    -0.06846    -0.01174
           4    -0.08873    -0.00358    -0.12097    -0.00029     0.04936    -0.00490
           5     0.00090    -0.00097    -0.00029     0.15803     0.00187     0.00107
           6    -0.06731    -0.06422    -0.00021     0.00157    -0.12727    -0.01125
           7     0.09698     0.01576    -0.27586     0.00173    -0.02769    -0.35257
           8     0.07911    -0.07751    -0.05651     0.15707    -0.00084     0.00158
           9    -0.02932    -0.30310    -0.00607    -0.00322    -0.05774     0.33896
          10     0.05896    -0.00740    -0.28652    -0.00261    -0.05781     0.34943
          11    -0.07740     0.07596     0.05592     0.15900     0.00442     0.00056
          12     0.00850    -0.27971     0.00475     0.00112    -0.02760    -0.36337
          13    -0.20466    -0.00899    -0.00959    -0.00019     0.11337    -0.00653
          14     0.00088    -0.00096    -0.00028     0.15803     0.00187     0.00107
          15    -0.10687     0.09373     0.00011     0.00339    -0.18608    -0.01067
          16    -0.23656     0.00021     0.04465     0.00202     0.15655    -0.35836
          17    -0.03753    -0.08317     0.05559     0.15717     0.06367    -0.00012
          18    -0.10529     0.17456     0.00564     0.00635    -0.19677    -0.36135
          19    -0.27436    -0.02295     0.03378    -0.00231     0.12630     0.34379
          20     0.03937     0.08124    -0.05622     0.15890    -0.05997     0.00226
          21    -0.14314     0.15130    -0.00517     0.00202    -0.22695     0.34101

                    7           8           9          10          11          12
 
 P.Frequency      384.40      384.43      866.90      893.69      893.79     1021.00
 
           1     0.04102    -0.05831    -0.00043    -0.00707    -0.10091     0.08888
           2     0.00015    -0.00000    -0.00003    -0.00001    -0.00006    -0.00025
           3    -0.07108    -0.00549     0.00033    -0.01486     0.10011     0.09359
           4    -0.07113     0.19797     0.00002    -0.02098     0.01941    -0.06776
           5    -0.00009    -0.00001     0.00000     0.00001     0.00000     0.00003
           6     0.19796     0.07116    -0.00012    -0.01944    -0.02100    -0.09317
           7     0.06480    -0.20762     0.35374    -0.00299     0.42662    -0.14348
           8    -0.11863    -0.25215     0.00038     0.05585     0.00243    -0.51303
           9    -0.20122    -0.08184    -0.35375     0.03219    -0.42558    -0.14673
          10     0.06469    -0.20684    -0.35052    -0.00100     0.42900    -0.14343
          11     0.11915     0.25248    -0.00040    -0.05605    -0.00187     0.51283
          12    -0.20088    -0.08209     0.35078     0.03007    -0.42817    -0.14542
          13     0.00546    -0.07107     0.00036     0.10007     0.01487     0.00061
          14    -0.00008    -0.00003     0.00003    -0.00002    -0.00000     0.00020
          15    -0.05829    -0.04102     0.00022     0.10095    -0.00707     0.02943
          16     0.08213    -0.20148    -0.35337    -0.42591    -0.02971     0.01421
          17     0.25235    -0.11892    -0.00013     0.00239    -0.05583     0.08119
          18    -0.20726    -0.06511    -0.35326    -0.42708    -0.00059    -0.03154
          19     0.08187    -0.20072     0.35085    -0.42750    -0.03249     0.01396
          20    -0.25262     0.11904     0.00016    -0.00198     0.05590    -0.08071
          21    -0.20734    -0.06446     0.35113    -0.42885    -0.00345    -0.03165

                   13          14          15          16          17          18
 
 P.Frequency     1021.12     1076.42     1439.99     1471.21     2011.98     3067.43
 
           1    -0.02943    -0.00002     0.00001     0.00002     0.00001    -0.00017
           2    -0.00021    -0.17219     0.04682     0.09856    -0.11127    -0.04515
           3     0.00064    -0.00021     0.00005     0.00009    -0.00010    -0.00019
           4     0.09322    -0.00005     0.00004     0.00000    -0.00003    -0.00001
           5     0.00003    -0.00004     0.04248    -0.00059     0.23758     0.01019
           6    -0.06782     0.00032     0.00002    -0.00002     0.00010     0.00000
           7     0.03146    -0.02920    -0.19020    -0.18939     0.04631    -0.28309
           8     0.08071    -0.26360    -0.40311    -0.33661    -0.04473     0.23901
           9     0.01433    -0.02940    -0.19041    -0.18955     0.04618    -0.28285
          10     0.03162     0.02949     0.18994     0.18904    -0.04615     0.28516
          11    -0.08123    -0.26444    -0.40371    -0.33714    -0.04452     0.24006
          12     0.01400     0.02910     0.18956     0.18879    -0.04624     0.28514
          13    -0.09363     0.00006     0.00001    -0.00002    -0.00000    -0.00017
          14     0.00018     0.17213     0.04489    -0.09948    -0.11140    -0.04832
          15     0.08886    -0.00011    -0.00001     0.00000     0.00001     0.00014
          16     0.14620     0.02952    -0.18586     0.19339     0.04630    -0.30319
          17     0.51309     0.26408    -0.39532     0.34575    -0.04417     0.25561
          18    -0.14357    -0.02933     0.18569    -0.19324    -0.04623     0.30324
          19     0.14606    -0.02971     0.18554    -0.19301    -0.04618     0.30522
          20    -0.51260     0.26519    -0.39567     0.34603    -0.04403     0.25692
          21    -0.14297     0.02971    -0.18560     0.19313     0.04622    -0.30498

                   19          20          21
 
 P.Frequency     3069.96     3125.46     3125.86
 
           1     0.00019     0.00057    -0.06553
           2     0.04873     0.00000     0.00034
           3     0.00021     0.00018    -0.06551
           4     0.00000     0.00090    -0.00089
           5    -0.00042     0.00004    -0.00004
           6    -0.00000    -0.00089    -0.00090
           7     0.30296    -0.00213     0.39800
           8    -0.25597     0.00204    -0.36287
           9     0.30275    -0.00235     0.39770
          10    -0.30533    -0.00221     0.39542
          11    -0.25719    -0.00211     0.35921
          12    -0.30529    -0.00242     0.39537
          13    -0.00017     0.06553     0.00019
          14    -0.04546    -0.00026    -0.00001
          15     0.00014    -0.06551    -0.00056
          16    -0.28315    -0.39776    -0.00244
          17     0.23898     0.36236     0.00213
          18     0.28326     0.39789     0.00220
          19     0.28521    -0.39563    -0.00234
          20     0.24031    -0.35968    -0.00202
          21    -0.28495     0.39527     0.00212



 ----------------------------------------------------------------------------
 Normal Eigenvalue ||    Projected Derivative Dipole Moments (debye/angs)
  Mode   [cm**-1]  ||      [d/dqX]             [d/dqY]           [d/dqZ]
 ------ ---------- || ------------------ ------------------ -----------------
    1       -0.000 ||      -0.001              -0.000             0.002
    2        0.000 ||       0.003               0.000            -0.000
    3        0.000 ||      -0.001               0.000            -0.001
    4        0.000 ||       0.000               0.005            -0.000
    5        0.000 ||       0.004               0.000            -0.005
    6        0.000 ||       0.000               0.000             0.000
    7      384.405 ||      -0.126               0.000             0.356
    8      384.428 ||      -0.357               0.000            -0.130
    9      866.900 ||       0.001               0.000            -0.005
   10      893.688 ||       0.927              -0.001             0.858
   11      893.791 ||       0.856              -0.000            -0.926
   12     1020.997 ||      -0.186              -0.001            -0.254
   13     1021.123 ||       0.253               0.002            -0.183
   14     1076.419 ||       0.000               0.000             0.000
   15     1439.987 ||       0.000               0.407             0.000
   16     1471.209 ||       0.000              -0.000             0.000
   17     2011.978 ||       0.000               1.055             0.000
   18     3067.425 ||      -0.001              -0.293            -0.000
   19     3069.958 ||       0.000               0.017             0.001
   20     3125.458 ||       0.149              -0.001            -0.148
   21     3125.864 ||      -0.142               0.001            -0.143
 ----------------------------------------------------------------------------



  
  
 ----------------------------------------------------------------------------
 Normal Eigenvalue ||           Projected Infra Red Intensities
  Mode   [cm**-1]  || [atomic units] [(debye/angs)**2] [(KM/mol)] [arbitrary]
 ------ ---------- || -------------- ----------------- ---------- -----------
    1       -0.000 ||    0.000000           0.000         0.000       0.000
    2        0.000 ||    0.000000           0.000         0.000       0.000
    3        0.000 ||    0.000000           0.000         0.000       0.000
    4        0.000 ||    0.000001           0.000         0.001       0.001
    5        0.000 ||    0.000002           0.000         0.002       0.001
    6        0.000 ||    0.000000           0.000         0.000       0.000
    7      384.405 ||    0.006181           0.143         6.025       5.853
    8      384.428 ||    0.006272           0.145         6.115       5.940
    9      866.900 ||    0.000001           0.000         0.001       0.001
   10      893.688 ||    0.069107           1.594        67.369      65.446
   11      893.791 ||    0.068883           1.589        67.151      65.234
   12     1020.997 ||    0.004300           0.099         4.192       4.072
   13     1021.123 ||    0.004213           0.097         4.107       3.990
   14     1076.419 ||    0.000000           0.000         0.000       0.000
   15     1439.987 ||    0.007173           0.165         6.992       6.793
   16     1471.209 ||    0.000000           0.000         0.000       0.000
   17     2011.978 ||    0.048212           1.112        47.000      45.658
   18     3067.425 ||    0.003718           0.086         3.624       3.521
   19     3069.958 ||    0.000012           0.000         0.012       0.012
   20     3125.458 ||    0.001909           0.044         1.861       1.808
   21     3125.864 ||    0.001763           0.041         1.719       1.670
 ----------------------------------------------------------------------------



 vib:animation  F

 Task  times  cpu:        0.0s     wall:        0.0s
 Summary of allocated global arrays
-----------------------------------
  No active global arrays



                         GA Statistics for process    0
                         ------------------------------

       create   destroy   get      put      acc     scatter   gather  read&inc
calls: 4.95e+04 4.95e+04 3.05e+07 2.32e+07 1.22e+07 3.39e+04    0     9.86e+04 
number of processes/call 1.00e+00 1.00e+00 1.00e+00 0.00e+00 0.00e+00
bytes total:             5.27e+09 8.28e+08 3.08e+09 2.80e+02 0.00e+00 7.89e+05
bytes remote:            0.00e+00 0.00e+00 0.00e+00 0.00e+00 0.00e+00 0.00e+00
Max memory consumed for GA by this process: 2131288 bytes
MA_summarize_allocated_blocks: starting scan ...
MA_summarize_allocated_blocks: scan completed: 0 heap blocks, 0 stack blocks
MA usage statistics:

	allocation statistics:
					      heap	     stack
					      ----	     -----
	current number of blocks	         0	         0
	maximum number of blocks	        24	        55
	current total bytes		         0	         0
	maximum total bytes		   5133568	  22511960
	maximum total K-bytes		      5134	     22512
	maximum total M-bytes		         6	        23


                                NWChem Input Module
                                -------------------





                                     CITATION
                                     --------
                Please cite the following reference when publishing
                           results obtained with NWChem:

                 M. Valiev, E.J. Bylaska, N. Govind, K. Kowalski,
              T.P. Straatsma, H.J.J. van Dam, D. Wang, J. Nieplocha,
                        E. Apra, T.L. Windus, W.A. de Jong
                 "NWChem: a comprehensive and scalable open-source
                  solution for large scale molecular simulations"
                      Comput. Phys. Commun. 181, 1477 (2010)
                           doi:10.1016/j.cpc.2010.04.018

                                      AUTHORS
                                      -------
          E. Apra, E. J. Bylaska, W. A. de Jong, N. Govind, K. Kowalski,
       T. P. Straatsma, M. Valiev, H. J. J. van Dam, D. Wang, T. L. Windus,
        J. Hammond, J. Autschbach, K. Bhaskaran-Nair, J. Brabec, K. Lopata,
       S. A. Fischer, S. Krishnamoorthy, W. Ma, M. Klemm, O. Villa, Y. Chen,
    V. Anisimov, F. Aquino, S. Hirata, M. T. Hackler, T. Risthaus, M. Malagoli,
       A. Marenich, A. Otero-de-la-Roza, J. Mullin, P. Nichols, R. Peverati,
     J. Pittner, Y. Zhao, P.-D. Fan, A. Fonari, M. Williamson, R. J. Harrison,
       J. R. Rehr, M. Dupuis, D. Silverstein, D. M. A. Smith, J. Nieplocha,
        V. Tipparaju, M. Krishnan, B. E. Van Kuiken, A. Vazquez-Mayagoitia,
        L. Jensen, M. Swart, Q. Wu, T. Van Voorhis, A. A. Auer, M. Nooijen,
      L. D. Crosby, E. Brown, G. Cisneros, G. I. Fann, H. Fruchtl, J. Garza,
        K. Hirao, R. A. Kendall, J. A. Nichols, K. Tsemekhman, K. Wolinski,
     J. Anchell, D. E. Bernholdt, P. Borowski, T. Clark, D. Clerc, H. Dachsel,
   M. J. O. Deegan, K. Dyall, D. Elwood, E. Glendening, M. Gutowski, A. C. Hess,
         J. Jaffe, B. G. Johnson, J. Ju, R. Kobayashi, R. Kutteh, Z. Lin,
   R. Littlefield, X. Long, B. Meng, T. Nakajima, S. Niu, L. Pollack, M. Rosing,
   K. Glaesemann, G. Sandrone, M. Stave, H. Taylor, G. Thomas, J. H. van Lenthe,
                               A. T. Wong, Z. Zhang.

 Total times  cpu:      614.4s     wall:      608.0s
