23
	Energy:       6.0378122
C         -6.60616        3.50124       -0.02412
C         -5.28165        2.76678        0.04980
H         -7.42184        2.77315        0.05154
H         -6.70585        4.02937       -0.96770
H         -6.69328        4.23010        0.78528
C         -4.09981        3.72955       -0.05400
C         -2.76727        2.98484        0.02377
C         -1.57729        3.94950       -0.07878
C         -0.24668        3.20723       -0.00497
C          0.93024        4.17025       -0.09622
H          0.91145        4.71903       -1.03999
H          1.86084        3.60556       -0.02928
H          0.91980        4.89424        0.72135
H         -0.17182        2.47706       -0.82851
H         -0.18361        2.65629        0.94094
H         -1.63753        4.49958       -1.01686
H         -1.64465        4.68289        0.74800
H         -2.70431        2.25980       -0.81334
H         -2.70459        2.41935        0.96064
H         -4.16432        4.29509       -0.99085
H         -4.15349        4.45971        0.77083
H         -5.24325        2.02466       -0.75903
H         -5.21659        2.22032        0.98539
