5
	Energy:      -0.6134296
C         -6.63808       -0.43366        0.00177
C         -5.33328       -0.40218        0.00076
C         -4.05211       -0.37021       -0.00025
C         -2.77102       -0.33700       -0.00128
C         -1.46628       -0.30211       -0.00236
