 argument  1 = calc.nw



============================== echo of input deck ==============================
echo

start bench

title "TDDFT benchmarks"

geometry units angstroms
load benzene.xyz
end

basis  spherical
 * library pcS-0
end

driver
 clear
 maxiter 12
 xyz test
end
dft
 xc becke88 lyp
 convergence energy 1d-8 nolevelshifting
 direct
 TOLERANCES tight
 ITERATIONS 5000
end

hessian
 thresh 1d-8
 profile
end

property
 response  1 8.8559E-2
 damping 0.007
end

raman
  normal
end


task dft optimize
task dft raman numerical

freq
 reuse
end


task dft freq
================================================================================


                                         
                                         


              Northwest Computational Chemistry Package (NWChem) 6.3
              ------------------------------------------------------


                    Environmental Molecular Sciences Laboratory
                       Pacific Northwest National Laboratory
                                Richland, WA 99352

                              Copyright (c) 1994-2012
                       Pacific Northwest National Laboratory
                            Battelle Memorial Institute

             NWChem is an open-source computational chemistry package
                        distributed under the terms of the
                      Educational Community License (ECL) 2.0
             A copy of the license is included with this distribution
                              in the LICENSE.TXT file

                                  ACKNOWLEDGMENT
                                  --------------

            This software and its documentation were developed at the
            EMSL at Pacific Northwest National Laboratory, a multiprogram
            national laboratory, operated for the U.S. Department of Energy
            by Battelle under Contract Number DE-AC05-76RL01830. Support
            for this work was provided by the Department of Energy Office
            of Biological and Environmental Research, Office of Basic
            Energy Sciences, and the Office of Advanced Scientific Computing.


           Job information
           ---------------

    hostname        = alarcj-ThinkPad-T430s
    program         = nwchem
    date            = Tue May 31 15:08:12 2016

    compiled        = Sun_Dec_22_04:02:59_2013
    source          = /build/buildd/nwchem-6.3+r1
    nwchem branch   = 6.3
    nwchem revision = 24277
    ga revision     = 10379
    input           = calc.nw
    prefix          = bench.
    data base       = ./bench.db
    status          = startup
    nproc           =        1
    time left       =     -1s



           Memory information
           ------------------

    heap     =   13107201 doubles =    100.0 Mbytes
    stack    =   13107201 doubles =    100.0 Mbytes
    global   =   26214400 doubles =    200.0 Mbytes (distinct from heap & stack)
    total    =   52428802 doubles =    400.0 Mbytes
    verify   = yes
    hardfail = no 


           Directory information
           ---------------------

  0 permanent = .
  0 scratch   = .




                                NWChem Input Module
                                -------------------


                                 TDDFT benchmarks
                                 ----------------

 Scaling coordinates for geometry "geometry" by  1.889725989
 (inverse scale =  0.529177249)

 D6H symmetry detected

          ------
          auto-z
          ------


                             Geometry "geometry" -> ""
                             -------------------------

 Output coordinates in angstroms (scale by  1.889725989 to convert to a.u.)

  No.       Tag          Charge          X              Y              Z
 ---- ---------------- ---------- -------------- -------------- --------------
    1 C                    6.0000    -0.99187235     0.99187235     0.00000000
    2 H                    1.0000    -1.76090441     1.76090441     0.00000000
    3 C                    6.0000    -1.35492283    -0.36305048     0.00000000
    4 H                    1.0000    -2.40544016    -0.64453575     0.00000000
    5 C                    6.0000    -0.36305048    -1.35492283     0.00000000
    6 H                    1.0000    -0.64453575    -2.40544016     0.00000000
    7 C                    6.0000     0.99187235    -0.99187235     0.00000000
    8 H                    1.0000     1.76090441    -1.76090441     0.00000000
    9 C                    6.0000     1.35492283     0.36305048     0.00000000
   10 H                    1.0000     2.40544016     0.64453575     0.00000000
   11 C                    6.0000     0.36305048     1.35492283     0.00000000
   12 H                    1.0000     0.64453575     2.40544016     0.00000000

      Atomic Mass 
      ----------- 

      C                 12.000000
      H                  1.007825


 Effective nuclear repulsion energy (a.u.)     202.4199488941

            Nuclear Dipole moment (a.u.) 
            ----------------------------
        X                 Y               Z
 ---------------- ---------------- ----------------
    -0.0000000000     0.0000000000     0.0000000000

      Symmetry information
      --------------------

 Group name             D6h       
 Group number             30
 Group order              24
 No. of unique centers     2

      Symmetry unique atoms

     1    2



                                Z-matrix (autoz)
                                -------- 

 Units are Angstrom for bonds and degrees for angles

      Type          Name      I     J     K     L     M      Value
      ----------- --------  ----- ----- ----- ----- ----- ----------
    1 Stretch                  1     2                       1.08758
    2 Stretch                  1     3                       1.40272
    3 Stretch                  1    11                       1.40272
    4 Stretch                  3     4                       1.08758
    5 Stretch                  3     5                       1.40272
    6 Stretch                  5     6                       1.08758
    7 Stretch                  5     7                       1.40272
    8 Stretch                  7     8                       1.08758
    9 Stretch                  7     9                       1.40272
   10 Stretch                  9    10                       1.08758
   11 Stretch                  9    11                       1.40272
   12 Stretch                 11    12                       1.08758
   13 Bend                     1     3     4               120.00000
   14 Bend                     1     3     5               120.00000
   15 Bend                     1    11     9               120.00000
   16 Bend                     1    11    12               120.00000
   17 Bend                     2     1     3               120.00000
   18 Bend                     2     1    11               120.00000
   19 Bend                     3     1    11               120.00000
   20 Bend                     3     5     6               120.00000
   21 Bend                     3     5     7               120.00000
   22 Bend                     4     3     5               120.00000
   23 Bend                     5     7     8               120.00000
   24 Bend                     5     7     9               120.00000
   25 Bend                     6     5     7               120.00000
   26 Bend                     7     9    10               120.00000
   27 Bend                     7     9    11               120.00000
   28 Bend                     8     7     9               120.00000
   29 Bend                     9    11    12               120.00000
   30 Bend                    10     9    11               120.00000
   31 Torsion                  1     3     5     6         180.00000
   32 Torsion                  1     3     5     7           0.00000
   33 Torsion                  1    11     9     7          -0.00000
   34 Torsion                  1    11     9    10         180.00000
   35 Torsion                  2     1     3     4           0.00000
   36 Torsion                  2     1     3     5         180.00000
   37 Torsion                  2     1    11     9         180.00000
   38 Torsion                  2     1    11    12           0.00000
   39 Torsion                  3     1    11     9           0.00000
   40 Torsion                  3     1    11    12         180.00000
   41 Torsion                  3     5     7     8         180.00000
   42 Torsion                  3     5     7     9           0.00000
   43 Torsion                  4     3     1    11         180.00000
   44 Torsion                  4     3     5     6          -0.00000
   45 Torsion                  4     3     5     7         180.00000
   46 Torsion                  5     3     1    11           0.00000
   47 Torsion                  5     7     9    10         180.00000
   48 Torsion                  5     7     9    11           0.00000
   49 Torsion                  6     5     7     8           0.00000
   50 Torsion                  6     5     7     9         180.00000
   51 Torsion                  7     9    11    12         180.00000
   52 Torsion                  8     7     9    10           0.00000
   53 Torsion                  8     7     9    11         180.00000
   54 Torsion                 10     9    11    12          -0.00000


            XYZ format geometry
            -------------------
    12
 geometry
 C                    -0.99187235     0.99187235     0.00000000
 H                    -1.76090441     1.76090441     0.00000000
 C                    -1.35492283    -0.36305048     0.00000000
 H                    -2.40544016    -0.64453575     0.00000000
 C                    -0.36305048    -1.35492283     0.00000000
 H                    -0.64453575    -2.40544016     0.00000000
 C                     0.99187235    -0.99187235     0.00000000
 H                     1.76090441    -1.76090441     0.00000000
 C                     1.35492283     0.36305048     0.00000000
 H                     2.40544016     0.64453575     0.00000000
 C                     0.36305048     1.35492283     0.00000000
 H                     0.64453575     2.40544016     0.00000000

 ==============================================================================
                                internuclear distances
 ------------------------------------------------------------------------------
       center one      |      center two      | atomic units |  angstroms
 ------------------------------------------------------------------------------
    2 H                |   1 C                |     2.05522  |     1.08758
    3 C                |   1 C                |     2.65076  |     1.40272
    4 H                |   3 C                |     2.05522  |     1.08758
    5 C                |   3 C                |     2.65076  |     1.40272
    6 H                |   5 C                |     2.05522  |     1.08758
    7 C                |   5 C                |     2.65076  |     1.40272
    8 H                |   7 C                |     2.05522  |     1.08758
    9 C                |   7 C                |     2.65076  |     1.40272
   10 H                |   9 C                |     2.05522  |     1.08758
   11 C                |   1 C                |     2.65076  |     1.40272
   11 C                |   9 C                |     2.65076  |     1.40272
   12 H                |  11 C                |     2.05522  |     1.08758
 ------------------------------------------------------------------------------
                         number of included internuclear distances:         12
 ==============================================================================



 ==============================================================================
                                 internuclear angles
 ------------------------------------------------------------------------------
        center 1       |       center 2       |       center 3       |  degrees
 ------------------------------------------------------------------------------
    2 H                |   1 C                |   3 C                |   120.00
    2 H                |   1 C                |  11 C                |   120.00
    3 C                |   1 C                |  11 C                |   120.00
    1 C                |   3 C                |   4 H                |   120.00
    1 C                |   3 C                |   5 C                |   120.00
    4 H                |   3 C                |   5 C                |   120.00
    3 C                |   5 C                |   6 H                |   120.00
    3 C                |   5 C                |   7 C                |   120.00
    6 H                |   5 C                |   7 C                |   120.00
    5 C                |   7 C                |   8 H                |   120.00
    5 C                |   7 C                |   9 C                |   120.00
    8 H                |   7 C                |   9 C                |   120.00
    7 C                |   9 C                |  10 H                |   120.00
    7 C                |   9 C                |  11 C                |   120.00
   10 H                |   9 C                |  11 C                |   120.00
    1 C                |  11 C                |   9 C                |   120.00
    1 C                |  11 C                |  12 H                |   120.00
    9 C                |  11 C                |  12 H                |   120.00
 ------------------------------------------------------------------------------
                            number of included internuclear angles:         18
 ==============================================================================





 Summary of "ao basis" -> "" (spherical)
 ------------------------------------------------------------------------------
       Tag                 Description            Shells   Functions and Types
 ---------------- ------------------------------  ------  ---------------------
 *                           pcS-0                    on all atoms 



  Deleted DRIVER restart files 



                           NWChem Geometry Optimization
                           ----------------------------




                                 TDDFT benchmarks


 maximum gradient threshold         (gmax) =   0.000450
 rms gradient threshold             (grms) =   0.000300
 maximum cartesian step threshold   (xmax) =   0.001800
 rms cartesian step threshold       (xrms) =   0.001200
 fixed trust radius                (trust) =   0.300000
 maximum step size to saddle      (sadstp) =   0.100000
 energy precision                  (eprec) =   5.0D-06
 maximum number of steps          (nptopt) =   12
 initial hessian option           (inhess) =    0
 line search option               (linopt) =    1
 hessian update option            (modupd) =    1
 saddle point option              (modsad) =    0
 initial eigen-mode to follow     (moddir) =    0
 initial variable to follow       (vardir) =    0
 follow first negative mode     (firstneg) =    T
 apply conjugacy                    (opcg) =    F
 source of zmatrix                         =   autoz   


          -------------------
          Energy Minimization
          -------------------


 Names of Z-matrix variables 
    1              2              3              4              5         
    6              7              8              9             10         
   11             12             13             14             15         
   16             17             18             19             20         
   21             22             23             24             25         
   26             27             28             29             30         
   31             32             33             34             35         
   36             37             38             39             40         
   41             42             43             44             45         
   46             47             48             49             50         
   51             52             53             54         

 Variables with the same non-blank name are constrained to be equal


 Using diagonal initial Hessian 
 Scaling for Hessian diagonals: bonds = 1.00  angles = 0.25  torsions = 0.10

          --------
          Step   0
          --------


                         Geometry "geometry" -> "geometry"
                         ---------------------------------

 Output coordinates in angstroms (scale by  1.889725989 to convert to a.u.)

  No.       Tag          Charge          X              Y              Z
 ---- ---------------- ---------- -------------- -------------- --------------
    1 C                    6.0000    -0.99187235     0.99187235     0.00000000
    2 H                    1.0000    -1.76090441     1.76090441     0.00000000
    3 C                    6.0000    -1.35492283    -0.36305048     0.00000000
    4 H                    1.0000    -2.40544016    -0.64453575     0.00000000
    5 C                    6.0000    -0.36305048    -1.35492283     0.00000000
    6 H                    1.0000    -0.64453575    -2.40544016     0.00000000
    7 C                    6.0000     0.99187235    -0.99187235     0.00000000
    8 H                    1.0000     1.76090441    -1.76090441     0.00000000
    9 C                    6.0000     1.35492283     0.36305048     0.00000000
   10 H                    1.0000     2.40544016     0.64453575     0.00000000
   11 C                    6.0000     0.36305048     1.35492283     0.00000000
   12 H                    1.0000     0.64453575     2.40544016     0.00000000

      Atomic Mass 
      ----------- 

      C                 12.000000
      H                  1.007825


 Effective nuclear repulsion energy (a.u.)     202.4199488941

            Nuclear Dipole moment (a.u.) 
            ----------------------------
        X                 Y               Z
 ---------------- ---------------- ----------------
    -0.0000000000     0.0000000000     0.0000000000

      Symmetry information
      --------------------

 Group name             D6h       
 Group number             30
 Group order              24
 No. of unique centers     2

      Symmetry unique atoms

     1    2


                                 NWChem DFT Module
                                 -----------------


                                 TDDFT benchmarks



 **** WARNING Zero Coefficient **** on atom "               C"
 angular momentum value: 0  standard basis set name: "pcS-0"
 input line that generated warning:
    64:       0.446509E+03           0.399403E-01           0.000000E+00
  

 **** WARNING Zero Coefficient **** on atom "               C"
 angular momentum value: 0  standard basis set name: "pcS-0"
 input line that generated warning:
    67:       0.393876E+01           0.000000E+00          -0.500000E+00
  
                      Basis "ao basis" -> "ao basis" (spherical)
                      -----
  C (Carbon)
  ----------
            Exponent  Coefficients 
       -------------- ---------------------------------------------------------
  1 S  4.46509000E+02  0.039940
  1 S  6.74620000E+01  0.276430
  1 S  1.50674000E+01  0.500000

  2 S  6.74620000E+01  0.002028
  2 S  1.50674000E+01 -0.209826
  2 S  3.93876000E+00 -0.500000

  3 S  2.99915000E-01  1.000000

  4 P  2.83900000E+01  0.010604
  4 P  4.36769000E+00  0.110992
  4 P  8.69817000E-01  0.500000

  5 P  1.88934000E-01  1.000000

  H (Hydrogen)
  ------------
            Exponent  Coefficients 
       -------------- ---------------------------------------------------------
  1 S  4.34480000E+00  0.090662
  1 S  6.60491000E-01  0.500000

  2 S  1.36687000E-01  1.000000



 Summary of "ao basis" -> "ao basis" (spherical)
 ------------------------------------------------------------------------------
       Tag                 Description            Shells   Functions and Types
 ---------------- ------------------------------  ------  ---------------------
 C                           pcS-0                   5        9   3s2p
 H                           pcS-0                   2        2   2s


  Caching 1-el integrals 
  itol2e modified to match energy
  convergence criterion.
  tol_rho modified to match energy
  convergence criterion.

            General Information
            -------------------
          SCF calculation type: DFT
          Wavefunction type:  closed shell.
          No. of atoms     :    12
          No. of electrons :    42
           Alpha electrons :    21
            Beta electrons :    21
          Charge           :     0
          Spin multiplicity:     1
          Use of symmetry is: on ; symmetry adaption is: on 
          Maximum number of iterations: ***
          This is a Direct SCF calculation.
          AO basis - number of functions:    66
                     number of shells:    42
          Convergence on energy requested: 1.00D-08
          Convergence on density requested: 1.00D-05
          Convergence on gradient requested: 5.00D-04

              XC Information
              --------------
                    Becke 1988 Exchange Functional  1.000          
              Lee-Yang-Parr Correlation Functional  1.000          

             Grid Information
             ----------------
          Grid used for XC integration:  medium    
          Radial quadrature: Mura-Knowles        
          Angular quadrature: Lebedev. 
          Tag              B.-S. Rad. Rad. Pts. Rad. Cut. Ang. Pts.
          ---              ---------- --------- --------- ---------
          C                   0.70       49          10.0       434
          H                   0.35       45          12.0       434
          Grid pruning is: on 
          Number of quadrature shells:    94
          Spatial weights used:  Erf1

          Convergence Information
          -----------------------
          Convergence aids based upon iterative change in 
          total energy or number of iterations. 
          Levelshifting, if invoked, occurs when the 
          HOMO/LUMO gap drops below (HL_TOL): 1.00D-02
          DIIS, if invoked, will attempt to extrapolate 
          using up to (NFOCK): 10 stored Fock matrices.

                    Damping( 0%)  Levelshifting(0.0)       DIIS
                  --------------- ------------------- ---------------
          dE  on:    start             N/A                start   
          dE off:    2 iters           N/A              *** iters 


      Screening Tolerance Information
      -------------------------------
          Density screening/tol_rho: 1.00D-11
          AO Gaussian exp screening on grid/accAOfunc:  18
          CD Gaussian exp screening on grid/accCDfunc:  20
          XC Gaussian exp screening on grid/accXCfunc:  20
          Schwarz screening/accCoul: 1.00D-09


      Superposition of Atomic Density Guess
      -------------------------------------

 Sum of atomic energies:        -228.39580307

      Non-variational initial energy
      ------------------------------

 Total energy =    -232.340146
 1-e energy   =    -706.883190
 2-e energy   =     272.123096
 HOMO         =      -0.271780
 LUMO         =       0.023514


      Symmetry analysis of molecular orbitals - initial
      -------------------------------------------------

  Numbering of irreducible representations: 

     1 a1g         2 a1u         3 a2g         4 a2u         5 b1g     
     6 b1u         7 b2g         8 b2u         9 e1g        10 e1u     
    11 e2g        12 e2u     

  Orbital symmetries:

     1 a1g         2 e1u         3 e1u         4 e2g         5 e2g     
     6 b2u         7 a1g         8 e1u         9 e1u        10 e2g     
    11 e2g        12 a1g        13 b2u        14 b1u        15 e1u     
    16 e1u        17 a2u        18 e2g        19 e2g        20 e1g     
    21 e1g        22 e2u        23 e2u        24 a1g        25 e1u     
    26 e1u        27 b1g        28 e2g        29 e2g        30 b2u     
    31 e2g     

   Time after variat. SCF:      0.2
   Time prior to 1st pass:      0.2

 Grid_pts file          = ./bench.gridpts.0
 Record size in doubles =  12289        No. of grid_pts per rec  =   3070
 Max. records in memory =     16        Max. recs in file   =   1610137


           Memory utilization after 1st SCF pass: 
           Heap Space remaining (MW):       12.91            12906393
          Stack Space remaining (MW):       13.11            13106547

   convergence    iter        energy       DeltaE   RMS-Dens  Diis-err    time
 ---------------- ----- ----------------- --------- --------- ---------  ------
 d= 0,ls=0.0,diis     1   -231.5585413244 -4.34D+02  1.19D-02  7.40D-01     0.4
 d= 0,ls=0.0,diis     2   -231.6185074332 -6.00D-02  7.80D-03  1.35D-01     0.6
 d= 0,ls=0.0,diis     3   -231.6310523269 -1.25D-02  3.24D-03  4.33D-02     0.7
 d= 0,ls=0.0,diis     4   -231.6373771223 -6.32D-03  2.44D-04  1.32D-04     0.9
 d= 0,ls=0.0,diis     5   -231.6374000300 -2.29D-05  2.08D-05  4.93D-07     1.1
 d= 0,ls=0.0,diis     6   -231.6374001243 -9.43D-08  1.00D-06  3.08D-09     1.2
 d= 0,ls=0.0,diis     7   -231.6374001247 -4.73D-10  6.11D-08  1.19D-11     1.4


         Total DFT energy =     -231.637400124747
      One electron energy =     -710.940777941451
           Coulomb energy =      311.478196362670
    Exchange-Corr. energy =      -34.594767440095
 Nuclear repulsion energy =      202.419948894129

 Numeric. integr. density =       42.000002534605

     Total iterative time =      1.2s



                  Occupations of the irreducible representations
                  ----------------------------------------------

                     irrep           alpha         beta
                     --------     --------     --------
                     a1g               3.0          3.0
                     a1u               0.0          0.0
                     a2g               0.0          0.0
                     a2u               1.0          1.0
                     b1g               0.0          0.0
                     b1u               1.0          1.0
                     b2g               0.0          0.0
                     b2u               2.0          2.0
                     e1g               2.0          2.0
                     e1u               6.0          6.0
                     e2g               6.0          6.0
                     e2u               0.0          0.0


                       DFT Final Molecular Orbital Analysis
                       ------------------------------------

 Vector    6  Occ=2.000000D+00  E=-9.921898D+00  Symmetry=a1g
              MO Center=  7.5D-13, -1.0D-11,  6.7D-30, r^2= 2.0D+00
   Bfn.  Coefficient  Atom+Function         Bfn.  Coefficient  Atom+Function  
  ----- ------------  ---------------      ----- ------------  ---------------
     2      0.282109   1 C  s                13      0.282109   3 C  s         
    24      0.282109   5 C  s                35      0.282109   7 C  s         
    46      0.282109   9 C  s                57      0.282109  11 C  s         

 Vector    7  Occ=2.000000D+00  E=-7.689802D-01  Symmetry=a1g
              MO Center=  7.8D-17,  4.7D-17,  9.3D-34, r^2= 2.1D+00
   Bfn.  Coefficient  Atom+Function         Bfn.  Coefficient  Atom+Function  
  ----- ------------  ---------------      ----- ------------  ---------------
     3      0.281325   1 C  s                14      0.281325   3 C  s         
    25      0.281325   5 C  s                36      0.281325   7 C  s         
    47      0.281325   9 C  s                58      0.281325  11 C  s         

 Vector    8  Occ=2.000000D+00  E=-6.685804D-01  Symmetry=e1u
              MO Center= -2.0D-15, -1.2D-15, -4.8D-17, r^2= 2.9D+00
   Bfn.  Coefficient  Atom+Function         Bfn.  Coefficient  Atom+Function  
  ----- ------------  ---------------      ----- ------------  ---------------
     3      0.429290   1 C  s                36     -0.429290   7 C  s         
    14      0.397754   3 C  s                47     -0.397754   9 C  s         

 Vector    9  Occ=2.000000D+00  E=-6.685804D-01  Symmetry=e1u
              MO Center=  8.0D-17,  4.6D-16, -8.4D-33, r^2= 2.9D+00
   Bfn.  Coefficient  Atom+Function         Bfn.  Coefficient  Atom+Function  
  ----- ------------  ---------------      ----- ------------  ---------------
    25      0.477494   5 C  s                58     -0.477494  11 C  s         
    14      0.266058   3 C  s                47     -0.266058   9 C  s         
     3     -0.211436   1 C  s                36      0.211436   7 C  s         

 Vector   10  Occ=2.000000D+00  E=-5.403830D-01  Symmetry=e2g
              MO Center=  2.1D-16,  2.7D-15, -3.6D-32, r^2= 3.6D+00
   Bfn.  Coefficient  Atom+Function         Bfn.  Coefficient  Atom+Function  
  ----- ------------  ---------------      ----- ------------  ---------------
     3      0.374962   1 C  s                36      0.374962   7 C  s         
    14     -0.321723   3 C  s                47     -0.321723   9 C  s         
    26      0.169139   5 C  px               59     -0.169139  11 C  px        

 Vector   11  Occ=2.000000D+00  E=-5.403830D-01  Symmetry=e2g
              MO Center= -3.8D-15,  4.4D-16, -2.2D-32, r^2= 3.6D+00
   Bfn.  Coefficient  Atom+Function         Bfn.  Coefficient  Atom+Function  
  ----- ------------  ---------------      ----- ------------  ---------------
    25      0.402231   5 C  s                58      0.402231  11 C  s         
    14     -0.247222   3 C  s                47     -0.247222   9 C  s         
     3     -0.155009   1 C  s                36     -0.155009   7 C  s         

 Vector   12  Occ=2.000000D+00  E=-4.716765D-01  Symmetry=a1g
              MO Center=  4.6D-15,  5.8D-15,  1.3D-16, r^2= 4.2D+00
   Bfn.  Coefficient  Atom+Function         Bfn.  Coefficient  Atom+Function  
  ----- ------------  ---------------      ----- ------------  ---------------
    15      0.166379   3 C  px               27      0.166379   5 C  py        
    48     -0.166379   9 C  px               60     -0.166379  11 C  py        

 Vector   13  Occ=2.000000D+00  E=-4.079760D-01  Symmetry=b2u
              MO Center=  2.4D-16,  1.4D-16, -1.5D-31, r^2= 5.3D+00
   Bfn.  Coefficient  Atom+Function         Bfn.  Coefficient  Atom+Function  
  ----- ------------  ---------------      ----- ------------  ---------------
     3      0.293958   1 C  s                14     -0.293958   3 C  s         
    25      0.293958   5 C  s                36     -0.293958   7 C  s         
    47      0.293958   9 C  s                58     -0.293958  11 C  s         
    10      0.159337   2 H  s                21     -0.159337   4 H  s         
    32      0.159337   6 H  s                43     -0.159337   8 H  s         

 Vector   14  Occ=2.000000D+00  E=-4.066777D-01  Symmetry=b1u
              MO Center=  1.5D-16,  2.6D-16,  4.8D-31, r^2= 2.8D+00
   Bfn.  Coefficient  Atom+Function         Bfn.  Coefficient  Atom+Function  
  ----- ------------  ---------------      ----- ------------  ---------------
    16      0.238597   3 C  py               26      0.238597   5 C  px        
    49      0.238597   9 C  py               59      0.238597  11 C  px        
     4     -0.174665   1 C  px                5     -0.174665   1 C  py        
    37     -0.174665   7 C  px               38     -0.174665   7 C  py        

 Vector   15  Occ=2.000000D+00  E=-3.786349D-01  Symmetry=e1u
              MO Center=  1.6D-15, -2.6D-15,  3.6D-18, r^2= 4.1D+00
   Bfn.  Coefficient  Atom+Function         Bfn.  Coefficient  Atom+Function  
  ----- ------------  ---------------      ----- ------------  ---------------
     5      0.191753   1 C  py               38      0.191753   7 C  py        
    10      0.182117   2 H  s                43     -0.182117   8 H  s         
    15     -0.167074   3 C  px               48     -0.167074   9 C  px        
     4     -0.165426   1 C  px               37     -0.165426   7 C  px        

 Vector   16  Occ=2.000000D+00  E=-3.786349D-01  Symmetry=e1u
              MO Center= -1.9D-15, -8.6D-15,  1.4D-17, r^2= 4.1D+00
   Bfn.  Coefficient  Atom+Function         Bfn.  Coefficient  Atom+Function  
  ----- ------------  ---------------      ----- ------------  ---------------
    27      0.249324   5 C  py               60      0.249324  11 C  py        
    30      0.197002   5 C  py               63      0.197002  11 C  py        
    15      0.190801   3 C  px               48      0.190801   9 C  px        
    32     -0.182677   6 H  s                65      0.182677  12 H  s         

 Vector   17  Occ=2.000000D+00  E=-3.224931D-01  Symmetry=a2u
              MO Center= -1.6D-15,  5.1D-15, -2.4D-17, r^2= 2.8D+00
   Bfn.  Coefficient  Atom+Function         Bfn.  Coefficient  Atom+Function  
  ----- ------------  ---------------      ----- ------------  ---------------
     6      0.192640   1 C  pz               17      0.192640   3 C  pz        
    28      0.192640   5 C  pz               39      0.192640   7 C  pz        
    50      0.192640   9 C  pz               61      0.192640  11 C  pz        
     9      0.173067   1 C  pz               20      0.173067   3 C  pz        
    31      0.173067   5 C  pz               42      0.173067   7 C  pz        

 Vector   18  Occ=2.000000D+00  E=-3.056543D-01  Symmetry=e2g
              MO Center= -2.5D-16,  4.3D-15, -1.2D-31, r^2= 4.2D+00
   Bfn.  Coefficient  Atom+Function         Bfn.  Coefficient  Atom+Function  
  ----- ------------  ---------------      ----- ------------  ---------------
    21      0.172834   4 H  s                54      0.172834  10 H  s         
     4      0.170957   1 C  px               37     -0.170957   7 C  px        
    26      0.163819   5 C  px               59     -0.163819  11 C  px        
    32     -0.162362   6 H  s                65     -0.162362  12 H  s         
    18     -0.161387   3 C  px               51      0.161387   9 C  px        

 Vector   19  Occ=2.000000D+00  E=-3.056543D-01  Symmetry=e2g
              MO Center=  5.9D-16, -2.4D-16,  9.1D-17, r^2= 4.2D+00
   Bfn.  Coefficient  Atom+Function         Bfn.  Coefficient  Atom+Function  
  ----- ------------  ---------------      ----- ------------  ---------------
    10      0.193525   2 H  s                43      0.193525   8 H  s         
    16     -0.177165   3 C  py               49      0.177165   9 C  py        
    26     -0.160424   5 C  px               59      0.160424  11 C  px        
     8      0.154120   1 C  py               41     -0.154120   7 C  py        
    27      0.151404   5 C  py               60     -0.151404  11 C  py        

 Vector   20  Occ=2.000000D+00  E=-2.223281D-01  Symmetry=e1g
              MO Center=  2.4D-15, -5.9D-15,  3.8D-16, r^2= 3.0D+00
   Bfn.  Coefficient  Atom+Function         Bfn.  Coefficient  Atom+Function  
  ----- ------------  ---------------      ----- ------------  ---------------
     9      0.280514   1 C  pz               42     -0.280514   7 C  pz        
    31     -0.267100   5 C  pz               64      0.267100  11 C  pz        
     6      0.259707   1 C  pz               39     -0.259707   7 C  pz        
    28     -0.247288   5 C  pz               61      0.247288  11 C  pz        

 Vector   21  Occ=2.000000D+00  E=-2.223281D-01  Symmetry=e1g
              MO Center= -1.1D-15,  2.7D-15, -3.4D-17, r^2= 3.0D+00
   Bfn.  Coefficient  Atom+Function         Bfn.  Coefficient  Atom+Function  
  ----- ------------  ---------------      ----- ------------  ---------------
    20      0.316165   3 C  pz               53     -0.316165   9 C  pz        
    17      0.292714   3 C  pz               50     -0.292714   9 C  pz        
    31      0.169699   5 C  pz               64     -0.169699  11 C  pz        
    28      0.157112   5 C  pz               61     -0.157112  11 C  pz        

 Vector   22  Occ=0.000000D+00  E=-2.918283D-02  Symmetry=e2u
              MO Center=  2.8D-17, -2.7D-15, -1.3D-16, r^2= 3.3D+00
   Bfn.  Coefficient  Atom+Function         Bfn.  Coefficient  Atom+Function  
  ----- ------------  ---------------      ----- ------------  ---------------
    31     -0.483853   5 C  pz               64     -0.483853  11 C  pz        
     9      0.471236   1 C  pz               42      0.471236   7 C  pz        
    28     -0.280436   5 C  pz               61     -0.280436  11 C  pz        
     6      0.273123   1 C  pz               39      0.273123   7 C  pz        

 Vector   23  Occ=0.000000D+00  E=-2.918283D-02  Symmetry=e2u
              MO Center=  4.7D-16,  1.0D-15,  4.1D-17, r^2= 3.3D+00
   Bfn.  Coefficient  Atom+Function         Bfn.  Coefficient  Atom+Function  
  ----- ------------  ---------------      ----- ------------  ---------------
    20      0.551421   3 C  pz               53      0.551421   9 C  pz        
    17      0.319597   3 C  pz               50      0.319597   9 C  pz        
     9     -0.286638   1 C  pz               42     -0.286638   7 C  pz        
    31     -0.264783   5 C  pz               64     -0.264783  11 C  pz        
     6     -0.166132   1 C  pz               39     -0.166132   7 C  pz        

 Vector   24  Occ=0.000000D+00  E= 6.970781D-02  Symmetry=a1g
              MO Center= -5.0D-15, -2.0D-14, -5.5D-17, r^2= 7.9D+00
   Bfn.  Coefficient  Atom+Function         Bfn.  Coefficient  Atom+Function  
  ----- ------------  ---------------      ----- ------------  ---------------
    11     -0.506693   2 H  s                22     -0.506693   4 H  s         
    33     -0.506693   6 H  s                44     -0.506693   8 H  s         
    55     -0.506693  10 H  s                66     -0.506693  12 H  s         
     3      0.475477   1 C  s                14      0.475477   3 C  s         
    25      0.475477   5 C  s                36      0.475477   7 C  s         

 Vector   25  Occ=0.000000D+00  E= 9.827412D-02  Symmetry=e1u
              MO Center= -9.0D-15,  1.1D-14,  2.1D-17, r^2= 9.0D+00
   Bfn.  Coefficient  Atom+Function         Bfn.  Coefficient  Atom+Function  
  ----- ------------  ---------------      ----- ------------  ---------------
    11      0.958692   2 H  s                44     -0.958692   8 H  s         
    33     -0.552509   6 H  s                66      0.552509  12 H  s         
    22      0.406184   4 H  s                55     -0.406184  10 H  s         
     8     -0.401779   1 C  py               41     -0.401779   7 C  py        
    30     -0.374472   5 C  py               63     -0.374472  11 C  py        

 Vector   26  Occ=0.000000D+00  E= 9.827412D-02  Symmetry=e1u
              MO Center=  1.3D-14,  1.0D-14, -8.1D-17, r^2= 9.0D+00
   Bfn.  Coefficient  Atom+Function         Bfn.  Coefficient  Atom+Function  
  ----- ------------  ---------------      ----- ------------  ---------------
    22      0.872492   4 H  s                55     -0.872492  10 H  s         
    33      0.788012   6 H  s                66     -0.788012  12 H  s         
    18      0.432997   3 C  px               51      0.432997   9 C  px        
    30      0.373260   5 C  py               63      0.373260  11 C  py        
    14     -0.311411   3 C  s                29      0.312037   5 C  px        

 Vector   27  Occ=0.000000D+00  E= 1.109667D-01  Symmetry=b1g
              MO Center= -6.2D-17, -2.8D-16, -7.3D-19, r^2= 3.5D+00
   Bfn.  Coefficient  Atom+Function         Bfn.  Coefficient  Atom+Function  
  ----- ------------  ---------------      ----- ------------  ---------------
     9      0.553540   1 C  pz               20     -0.553540   3 C  pz        
    31      0.553540   5 C  pz               42     -0.553540   7 C  pz        
    53      0.553540   9 C  pz               64     -0.553540  11 C  pz        
     6      0.255880   1 C  pz               17     -0.255880   3 C  pz        
    28      0.255880   5 C  pz               39     -0.255880   7 C  pz        

 Vector   28  Occ=0.000000D+00  E= 1.393908D-01  Symmetry=e2g
              MO Center=  7.2D-16, -3.9D-16,  4.2D-30, r^2= 9.6D+00
   Bfn.  Coefficient  Atom+Function         Bfn.  Coefficient  Atom+Function  
  ----- ------------  ---------------      ----- ------------  ---------------
    11      1.112658   2 H  s                44      1.112658   8 H  s         
    33     -0.617318   6 H  s                66     -0.617318  12 H  s         
     3     -0.610729   1 C  s                36     -0.610729   7 C  s         
     8     -0.495973   1 C  py               22     -0.495339   4 H  s         
    41      0.495973   7 C  py               55     -0.495339  10 H  s         

 Vector   29  Occ=0.000000D+00  E= 1.393908D-01  Symmetry=e2g
              MO Center= -1.4D-17, -3.3D-16,  1.6D-30, r^2= 9.6D+00
   Bfn.  Coefficient  Atom+Function         Bfn.  Coefficient  Atom+Function  
  ----- ------------  ---------------      ----- ------------  ---------------
    22      0.998802   4 H  s                55      0.998802  10 H  s         
    33     -0.928377   6 H  s                66     -0.928377  12 H  s         
    18      0.594471   3 C  px               51     -0.594471   9 C  px        
    14     -0.548235   3 C  s                30     -0.549613   5 C  py        
    47     -0.548235   9 C  s                63      0.549613  11 C  py        

 Vector   30  Occ=0.000000D+00  E= 1.500224D-01  Symmetry=b2u
              MO Center= -2.6D-15,  0.0D+00,  4.3D-19, r^2= 1.0D+01
   Bfn.  Coefficient  Atom+Function         Bfn.  Coefficient  Atom+Function  
  ----- ------------  ---------------      ----- ------------  ---------------
    11      0.893553   2 H  s                22     -0.893553   4 H  s         
    33      0.893553   6 H  s                44     -0.893553   8 H  s         
    55      0.893553  10 H  s                66     -0.893553  12 H  s         
    18     -0.578058   3 C  px               30      0.578058   5 C  py        
    51     -0.578058   9 C  px               63      0.578058  11 C  py        

 Vector   31  Occ=0.000000D+00  E= 2.912750D-01  Symmetry=e2g
              MO Center=  1.4D-15, -1.2D-15, -1.3D-30, r^2= 4.3D+00
   Bfn.  Coefficient  Atom+Function         Bfn.  Coefficient  Atom+Function  
  ----- ------------  ---------------      ----- ------------  ---------------
     3      1.134937   1 C  s                36      1.134937   7 C  s         
    11      0.700193   2 H  s                44      0.700193   8 H  s         
     7      0.680478   1 C  px               40     -0.680478   7 C  px        
     8     -0.654670   1 C  py               41      0.654670   7 C  py        
    19     -0.636073   3 C  py               52      0.636073   9 C  py        

 Vector   32  Occ=0.000000D+00  E= 2.912750D-01  Symmetry=e2g
              MO Center=  1.3D-15,  1.0D-15, -3.3D-31, r^2= 4.3D+00
   Bfn.  Coefficient  Atom+Function         Bfn.  Coefficient  Atom+Function  
  ----- ------------  ---------------      ----- ------------  ---------------
    14      0.999823   3 C  s                47      0.999823   9 C  s         
    25     -0.965945   5 C  s                58     -0.965945  11 C  s         
    18      0.878383   3 C  px               51     -0.878383   9 C  px        
    30     -0.859342   5 C  py               63      0.859342  11 C  py        
    22      0.616836   4 H  s                55      0.616836  10 H  s         

 Vector   33  Occ=0.000000D+00  E= 3.176195D-01  Symmetry=e1u
              MO Center= -7.1D-16, -4.2D-16, -5.3D-17, r^2= 4.7D+00
   Bfn.  Coefficient  Atom+Function         Bfn.  Coefficient  Atom+Function  
  ----- ------------  ---------------      ----- ------------  ---------------
    25      0.907680   5 C  s                58     -0.907680  11 C  s         
    14      0.894292   3 C  s                47     -0.894292   9 C  s         
     7      0.862703   1 C  px                8      0.866815   1 C  py        
    40      0.862703   7 C  px               41      0.866815   7 C  py        
    19      0.654079   3 C  py               52      0.654079   9 C  py        

 Vector   34  Occ=0.000000D+00  E= 3.176195D-01  Symmetry=e1u
              MO Center=  2.4D-15,  1.3D-16, -8.5D-17, r^2= 4.7D+00
   Bfn.  Coefficient  Atom+Function         Bfn.  Coefficient  Atom+Function  
  ----- ------------  ---------------      ----- ------------  ---------------
     3      1.040369   1 C  s                36     -1.040369   7 C  s         
    29      1.002031   5 C  px               62      1.002031  11 C  px        
    19     -0.985526   3 C  py               52     -0.985526   9 C  py        
    14      0.531779   3 C  s                47     -0.531779   9 C  s         
    25     -0.508590   5 C  s                58      0.508590  11 C  s         

 Vector   35  Occ=0.000000D+00  E= 4.776013D-01  Symmetry=b2u
              MO Center=  7.1D-16, -2.1D-15, -7.4D-19, r^2= 4.8D+00
   Bfn.  Coefficient  Atom+Function         Bfn.  Coefficient  Atom+Function  
  ----- ------------  ---------------      ----- ------------  ---------------
     3      1.068065   1 C  s                14     -1.068065   3 C  s         
    25      1.068065   5 C  s                36     -1.068065   7 C  s         
    47      1.068065   9 C  s                58     -1.068065  11 C  s         
    18     -1.024315   3 C  px               30      1.024315   5 C  py        
    51     -1.024315   9 C  px               63      1.024315  11 C  py        

 Vector   36  Occ=0.000000D+00  E= 5.108859D-01  Symmetry=a2g
              MO Center= -6.9D-15, -9.2D-15,  9.3D-31, r^2= 4.4D+00
   Bfn.  Coefficient  Atom+Function         Bfn.  Coefficient  Atom+Function  
  ----- ------------  ---------------      ----- ------------  ---------------
    19      2.442635   3 C  py               29     -2.442635   5 C  px        
    52     -2.442635   9 C  py               62      2.442635  11 C  px        
     7      1.788133   1 C  px                8      1.788133   1 C  py        
    40     -1.788133   7 C  px               41     -1.788133   7 C  py        
    18     -0.654502   3 C  px               30      0.654502   5 C  py        


 center of mass
 --------------
 x =  -0.00000000 y =   0.00000000 z =   0.00000000

 moments of inertia (a.u.)
 ------------------
         319.912592557841           0.000000000000           0.000000000000
           0.000000000000         319.912592557841           0.000000000000
           0.000000000000           0.000000000000         639.825185115682

     Multipole analysis of the density
     ---------------------------------

     L   x y z        total         alpha         beta         nuclear
     -   - - -        -----         -----         ----         -------
     0   0 0 0     -0.000000    -21.000000    -21.000000     42.000000

     1   1 0 0     -0.000000     -0.000000     -0.000000     -0.000000
     1   0 1 0     -0.000000     -0.000000     -0.000000      0.000000
     1   0 0 1     -0.000000     -0.000000     -0.000000      0.000000

     2   2 0 0    -23.562711   -108.239183   -108.239183    192.915656
     2   1 1 0      0.000000      0.000000      0.000000     -0.000000
     2   1 0 1     -0.000000     -0.000000     -0.000000      0.000000
     2   0 2 0    -23.562711   -108.239183   -108.239183    192.915656
     2   0 1 1      0.000000      0.000000      0.000000      0.000000
     2   0 0 2    -29.898942    -14.949471    -14.949471      0.000000


 **** WARNING Zero Coefficient **** on atom "               C"
 angular momentum value: 0  standard basis set name: "pcS-0"
 input line that generated warning:
    64:       0.446509E+03           0.399403E-01           0.000000E+00
  

 **** WARNING Zero Coefficient **** on atom "               C"
 angular momentum value: 0  standard basis set name: "pcS-0"
 input line that generated warning:
    67:       0.393876E+01           0.000000E+00          -0.500000E+00
  


                            NWChem DFT Gradient Module
                            --------------------------


                                 TDDFT benchmarks



  charge          =   0.00
  wavefunction    = closed shell

  Using symmetry


                         DFT ENERGY GRADIENTS

    atom               coordinates                        gradient
                 x          y          z           x          y          z
   1 C      -1.874367   1.874367   0.000000   -0.000150   0.000150   0.000000
   2 H      -3.327627   3.327627   0.000000    0.004311  -0.004311   0.000000
   3 C      -2.560433  -0.686066   0.000000   -0.000205  -0.000055   0.000000
   4 H      -4.545623  -1.217996   0.000000    0.005888   0.001578   0.000000
   5 C      -0.686066  -2.560433   0.000000   -0.000055  -0.000205   0.000000
   6 H      -1.217996  -4.545623   0.000000    0.001578   0.005888   0.000000
   7 C       1.874367  -1.874367   0.000000    0.000150  -0.000150   0.000000
   8 H       3.327627  -3.327627   0.000000   -0.004311   0.004311   0.000000
   9 C       2.560433   0.686066   0.000000    0.000205   0.000055   0.000000
  10 H       4.545623   1.217996   0.000000   -0.005888  -0.001578   0.000000
  11 C       0.686066   2.560433   0.000000    0.000055   0.000205   0.000000
  12 H       1.217996   4.545623   0.000000   -0.001578  -0.005888   0.000000

                 ----------------------------------------
                 |  Time  |  1-e(secs)   |  2-e(secs)   |
                 ----------------------------------------
                 |  CPU   |       0.00   |       0.14   |
                 ----------------------------------------
                 |  WALL  |       0.00   |       0.14   |
                 ----------------------------------------

@ Step       Energy      Delta E   Gmax     Grms     Xrms     Xmax   Walltime
@ ---- ---------------- -------- -------- -------- -------- -------- --------
@    0    -231.63740012  0.0D+00  0.00610  0.00282  0.00000  0.00000      2.0
                                                                    



                                Z-matrix (autoz)
                                -------- 

 Units are Angstrom for bonds and degrees for angles

      Type          Name      I     J     K     L     M      Value     Gradient
      ----------- --------  ----- ----- ----- ----- ----- ---------- ----------
    1 Stretch                  1     2                       1.08758   -0.00610
    2 Stretch                  1     3                       1.40272   -0.00588
    3 Stretch                  1    11                       1.40272   -0.00588
    4 Stretch                  3     4                       1.08758   -0.00610
    5 Stretch                  3     5                       1.40272   -0.00588
    6 Stretch                  5     6                       1.08758   -0.00610
    7 Stretch                  5     7                       1.40272   -0.00588
    8 Stretch                  7     8                       1.08758   -0.00610
    9 Stretch                  7     9                       1.40272   -0.00588
   10 Stretch                  9    10                       1.08758   -0.00610
   11 Stretch                  9    11                       1.40272   -0.00588
   12 Stretch                 11    12                       1.08758   -0.00610
   13 Bend                     1     3     4               120.00000   -0.00000
   14 Bend                     1     3     5               120.00000    0.00000
   15 Bend                     1    11     9               120.00000    0.00000
   16 Bend                     1    11    12               120.00000   -0.00000
   17 Bend                     2     1     3               120.00000   -0.00000
   18 Bend                     2     1    11               120.00000   -0.00000
   19 Bend                     3     1    11               120.00000    0.00000
   20 Bend                     3     5     6               120.00000    0.00000
   21 Bend                     3     5     7               120.00000   -0.00000
   22 Bend                     4     3     5               120.00000    0.00000
   23 Bend                     5     7     8               120.00000    0.00000
   24 Bend                     5     7     9               120.00000   -0.00000
   25 Bend                     6     5     7               120.00000   -0.00000
   26 Bend                     7     9    10               120.00000    0.00000
   27 Bend                     7     9    11               120.00000   -0.00000
   28 Bend                     8     7     9               120.00000   -0.00000
   29 Bend                     9    11    12               120.00000    0.00000
   30 Bend                    10     9    11               120.00000    0.00000
   31 Torsion                  1     3     5     6         180.00000    0.00000
   32 Torsion                  1     3     5     7           0.00000    0.00000
   33 Torsion                  1    11     9     7          -0.00000    0.00000
   34 Torsion                  1    11     9    10         180.00000    0.00000
   35 Torsion                  2     1     3     4           0.00000    0.00000
   36 Torsion                  2     1     3     5         180.00000    0.00000
   37 Torsion                  2     1    11     9         180.00000    0.00000
   38 Torsion                  2     1    11    12           0.00000    0.00000
   39 Torsion                  3     1    11     9           0.00000    0.00000
   40 Torsion                  3     1    11    12         180.00000    0.00000
   41 Torsion                  3     5     7     8         180.00000    0.00000
   42 Torsion                  3     5     7     9           0.00000    0.00000
   43 Torsion                  4     3     1    11         180.00000    0.00000
   44 Torsion                  4     3     5     6          -0.00000    0.00000
   45 Torsion                  4     3     5     7         180.00000    0.00000
   46 Torsion                  5     3     1    11           0.00000    0.00000
   47 Torsion                  5     7     9    10         180.00000    0.00000
   48 Torsion                  5     7     9    11           0.00000    0.00000
   49 Torsion                  6     5     7     8           0.00000    0.00000
   50 Torsion                  6     5     7     9         180.00000    0.00000
   51 Torsion                  7     9    11    12         180.00000    0.00000
   52 Torsion                  8     7     9    10           0.00000    0.00000
   53 Torsion                  8     7     9    11         180.00000    0.00000
   54 Torsion                 10     9    11    12          -0.00000    0.00000


                                 NWChem DFT Module
                                 -----------------


                                 TDDFT benchmarks



 **** WARNING Zero Coefficient **** on atom "               C"
 angular momentum value: 0  standard basis set name: "pcS-0"
 input line that generated warning:
    64:       0.446509E+03           0.399403E-01           0.000000E+00
  

 **** WARNING Zero Coefficient **** on atom "               C"
 angular momentum value: 0  standard basis set name: "pcS-0"
 input line that generated warning:
    67:       0.393876E+01           0.000000E+00          -0.500000E+00
  
  Caching 1-el integrals 

            General Information
            -------------------
          SCF calculation type: DFT
          Wavefunction type:  closed shell.
          No. of atoms     :    12
          No. of electrons :    42
           Alpha electrons :    21
            Beta electrons :    21
          Charge           :     0
          Spin multiplicity:     1
          Use of symmetry is: on ; symmetry adaption is: on 
          Maximum number of iterations: ***
          This is a Direct SCF calculation.
          AO basis - number of functions:    66
                     number of shells:    42
          Convergence on energy requested: 1.00D-08
          Convergence on density requested: 1.00D-05
          Convergence on gradient requested: 5.00D-04

              XC Information
              --------------
                    Becke 1988 Exchange Functional  1.000          
              Lee-Yang-Parr Correlation Functional  1.000          

             Grid Information
             ----------------
          Grid used for XC integration:  medium    
          Radial quadrature: Mura-Knowles        
          Angular quadrature: Lebedev. 
          Tag              B.-S. Rad. Rad. Pts. Rad. Cut. Ang. Pts.
          ---              ---------- --------- --------- ---------
          C                   0.70       49          10.0       434
          H                   0.35       45          12.0       434
          Grid pruning is: on 
          Number of quadrature shells:    94
          Spatial weights used:  Erf1

          Convergence Information
          -----------------------
          Convergence aids based upon iterative change in 
          total energy or number of iterations. 
          Levelshifting, if invoked, occurs when the 
          HOMO/LUMO gap drops below (HL_TOL): 1.00D-02
          DIIS, if invoked, will attempt to extrapolate 
          using up to (NFOCK): 10 stored Fock matrices.

                    Damping( 0%)  Levelshifting(0.0)       DIIS
                  --------------- ------------------- ---------------
          dE  on:    start             N/A                start   
          dE off:    2 iters           N/A              *** iters 


      Screening Tolerance Information
      -------------------------------
          Density screening/tol_rho: 1.00D-11
          AO Gaussian exp screening on grid/accAOfunc:  18
          CD Gaussian exp screening on grid/accCDfunc:  20
          XC Gaussian exp screening on grid/accXCfunc:  20
          Schwarz screening/accCoul: 1.00D-09


 Loading old vectors from job with title :

TDDFT benchmarks


      Symmetry analysis of molecular orbitals - initial
      -------------------------------------------------

  Numbering of irreducible representations: 

     1 a1g         2 a1u         3 a2g         4 a2u         5 b1g     
     6 b1u         7 b2g         8 b2u         9 e1g        10 e1u     
    11 e2g        12 e2u     

  Orbital symmetries:

     1 b2u         2 e1u         3 e1u         4 e2g         5 e2g     
     6 a1g         7 a1g         8 e1u         9 e1u        10 e2g     
    11 e2g        12 a1g        13 b2u        14 b1u        15 e1u     
    16 e1u        17 a2u        18 e2g        19 e2g        20 e1g     
    21 e1g        22 e2u        23 e2u        24 a1g        25 e1u     
    26 e1u        27 b1g        28 e2g        29 e2g        30 b2u     
    31 e2g     

   Time after variat. SCF:      1.8
   Time prior to 1st pass:      1.8

 Grid_pts file          = ./bench.gridpts.0
 Record size in doubles =  12289        No. of grid_pts per rec  =   3070
 Max. records in memory =     16        Max. recs in file   =   1610127


           Memory utilization after 1st SCF pass: 
           Heap Space remaining (MW):       12.91            12906393
          Stack Space remaining (MW):       13.11            13106547

   convergence    iter        energy       DeltaE   RMS-Dens  Diis-err    time
 ---------------- ----- ----------------- --------- --------- ---------  ------
 d= 0,ls=0.0,diis     1   -231.6378076688 -4.33D+02  7.76D-04  9.56D-04     2.0
 d= 0,ls=0.0,diis     2   -231.6378674763 -5.98D-05  3.82D-04  3.40D-04     2.1
 d= 0,ls=0.0,diis     3   -231.6379082459 -4.08D-05  1.22D-04  6.63D-05     2.3
 d= 0,ls=0.0,diis     4   -231.6379179028 -9.66D-06  7.01D-06  1.14D-07     2.5
 d= 0,ls=0.0,diis     5   -231.6379179226 -1.98D-08  8.64D-07  1.11D-09     2.7
 d= 0,ls=0.0,diis     6   -231.6379179228 -2.00D-10  4.69D-08  3.97D-12     2.9


         Total DFT energy =     -231.637917922819
      One electron energy =     -708.848942244468
           Coulomb energy =      310.410460536302
    Exchange-Corr. energy =      -34.553562085314
 Nuclear repulsion energy =      201.354125870661

 Numeric. integr. density =       42.000000144744

     Total iterative time =      1.1s



                  Occupations of the irreducible representations
                  ----------------------------------------------

                     irrep           alpha         beta
                     --------     --------     --------
                     a1g               3.0          3.0
                     a1u               0.0          0.0
                     a2g               0.0          0.0
                     a2u               1.0          1.0
                     b1g               0.0          0.0
                     b1u               1.0          1.0
                     b2g               0.0          0.0
                     b2u               2.0          2.0
                     e1g               2.0          2.0
                     e1u               6.0          6.0
                     e2g               6.0          6.0
                     e2u               0.0          0.0


                       DFT Final Molecular Orbital Analysis
                       ------------------------------------

 Vector    6  Occ=2.000000D+00  E=-9.924592D+00  Symmetry=a1g
              MO Center=  1.0D-11, -4.2D-12, -9.5D-30, r^2= 2.0D+00
   Bfn.  Coefficient  Atom+Function         Bfn.  Coefficient  Atom+Function  
  ----- ------------  ---------------      ----- ------------  ---------------
     2      0.282131   1 C  s                13      0.282131   3 C  s         
    24      0.282131   5 C  s                35      0.282131   7 C  s         
    46      0.282131   9 C  s                57      0.282131  11 C  s         

 Vector    7  Occ=2.000000D+00  E=-7.660698D-01  Symmetry=a1g
              MO Center=  3.8D-17,  1.0D-14,  7.8D-17, r^2= 2.1D+00
   Bfn.  Coefficient  Atom+Function         Bfn.  Coefficient  Atom+Function  
  ----- ------------  ---------------      ----- ------------  ---------------
     3      0.282088   1 C  s                14      0.282088   3 C  s         
    25      0.282088   5 C  s                36      0.282088   7 C  s         
    47      0.282088   9 C  s                58      0.282088  11 C  s         

 Vector    8  Occ=2.000000D+00  E=-6.667607D-01  Symmetry=e1u
              MO Center= -4.0D-15, -1.7D-15,  9.6D-31, r^2= 2.9D+00
   Bfn.  Coefficient  Atom+Function         Bfn.  Coefficient  Atom+Function  
  ----- ------------  ---------------      ----- ------------  ---------------
    14      0.472798   3 C  s                47     -0.472798   9 C  s         
    25      0.297933   5 C  s                58     -0.297933  11 C  s         
     3      0.174865   1 C  s                36     -0.174865   7 C  s         

 Vector    9  Occ=2.000000D+00  E=-6.667607D-01  Symmetry=e1u
              MO Center=  1.3D-14, -6.3D-15,  6.6D-16, r^2= 2.9D+00
   Bfn.  Coefficient  Atom+Function         Bfn.  Coefficient  Atom+Function  
  ----- ------------  ---------------      ----- ------------  ---------------
     3      0.444982   1 C  s                36     -0.444982   7 C  s         
    25     -0.373928   5 C  s                58      0.373928  11 C  s         

 Vector   10  Occ=2.000000D+00  E=-5.387990D-01  Symmetry=e2g
              MO Center= -7.1D-15, -5.4D-15,  1.8D-30, r^2= 3.6D+00
   Bfn.  Coefficient  Atom+Function         Bfn.  Coefficient  Atom+Function  
  ----- ------------  ---------------      ----- ------------  ---------------
    25      0.405538   5 C  s                58      0.405538  11 C  s         
    14     -0.216887   3 C  s                47     -0.216887   9 C  s         
     3     -0.188651   1 C  s                36     -0.188651   7 C  s         

 Vector   11  Occ=2.000000D+00  E=-5.387990D-01  Symmetry=e2g
              MO Center= -2.1D-15,  2.9D-15,  9.3D-31, r^2= 3.6D+00
   Bfn.  Coefficient  Atom+Function         Bfn.  Coefficient  Atom+Function  
  ----- ------------  ---------------      ----- ------------  ---------------
     3      0.359358   1 C  s                36      0.359358   7 C  s         
    14     -0.343056   3 C  s                47     -0.343056   9 C  s         
    26      0.168978   5 C  px               59     -0.168978  11 C  px        

 Vector   12  Occ=2.000000D+00  E=-4.687102D-01  Symmetry=a1g
              MO Center= -1.3D-14,  6.1D-15,  1.1D-16, r^2= 4.3D+00
   Bfn.  Coefficient  Atom+Function         Bfn.  Coefficient  Atom+Function  
  ----- ------------  ---------------      ----- ------------  ---------------
    15      0.166182   3 C  px               27      0.166182   5 C  py        
    48     -0.166182   9 C  px               60     -0.166182  11 C  py        

 Vector   13  Occ=2.000000D+00  E=-4.070725D-01  Symmetry=b2u
              MO Center=  4.0D-15,  1.8D-15, -5.0D-19, r^2= 5.3D+00
   Bfn.  Coefficient  Atom+Function         Bfn.  Coefficient  Atom+Function  
  ----- ------------  ---------------      ----- ------------  ---------------
     3      0.292535   1 C  s                14     -0.292535   3 C  s         
    25      0.292535   5 C  s                36     -0.292535   7 C  s         
    47      0.292535   9 C  s                58     -0.292535  11 C  s         
    10      0.158263   2 H  s                21     -0.158263   4 H  s         
    32      0.158263   6 H  s                43     -0.158263   8 H  s         

 Vector   14  Occ=2.000000D+00  E=-4.052172D-01  Symmetry=b1u
              MO Center=  2.4D-17,  2.9D-17, -2.0D-45, r^2= 2.8D+00
   Bfn.  Coefficient  Atom+Function         Bfn.  Coefficient  Atom+Function  
  ----- ------------  ---------------      ----- ------------  ---------------
    16      0.238142   3 C  py               26      0.238142   5 C  px        
    49      0.238142   9 C  py               59      0.238142  11 C  px        
     4     -0.174332   1 C  px                5     -0.174332   1 C  py        
    37     -0.174332   7 C  px               38     -0.174332   7 C  py        

 Vector   15  Occ=2.000000D+00  E=-3.771742D-01  Symmetry=e1u
              MO Center=  1.3D-14,  7.1D-16, -9.0D-33, r^2= 4.1D+00
   Bfn.  Coefficient  Atom+Function         Bfn.  Coefficient  Atom+Function  
  ----- ------------  ---------------      ----- ------------  ---------------
    15      0.243124   3 C  px               48      0.243124   9 C  px        
    18      0.199498   3 C  px               51      0.199498   9 C  px        
    21     -0.184643   4 H  s                54      0.184643  10 H  s         
     5     -0.159574   1 C  py               38     -0.159574   7 C  py        

 Vector   16  Occ=2.000000D+00  E=-3.771742D-01  Symmetry=e1u
              MO Center=  3.7D-16, -6.6D-15, -2.8D-33, r^2= 4.1D+00
   Bfn.  Coefficient  Atom+Function         Bfn.  Coefficient  Atom+Function  
  ----- ------------  ---------------      ----- ------------  ---------------
    27      0.233411   5 C  py               60      0.233411  11 C  py        
    30      0.193271   5 C  py               63      0.193271  11 C  py        
    32     -0.178914   6 H  s                65      0.178914  12 H  s         
     4     -0.170773   1 C  px               37     -0.170773   7 C  px        

 Vector   17  Occ=2.000000D+00  E=-3.207172D-01  Symmetry=a2u
              MO Center= -1.4D-17, -4.2D-17, -1.8D-16, r^2= 2.8D+00
   Bfn.  Coefficient  Atom+Function         Bfn.  Coefficient  Atom+Function  
  ----- ------------  ---------------      ----- ------------  ---------------
     6      0.192553   1 C  pz               17      0.192553   3 C  pz        
    28      0.192553   5 C  pz               39      0.192553   7 C  pz        
    50      0.192553   9 C  pz               61      0.192553  11 C  pz        
     9      0.173812   1 C  pz               20      0.173812   3 C  pz        
    31      0.173812   5 C  pz               42      0.173812   7 C  pz        

 Vector   18  Occ=2.000000D+00  E=-3.052862D-01  Symmetry=e2g
              MO Center= -1.8D-16, -1.4D-15, -7.7D-17, r^2= 4.3D+00
   Bfn.  Coefficient  Atom+Function         Bfn.  Coefficient  Atom+Function  
  ----- ------------  ---------------      ----- ------------  ---------------
    16     -0.227918   3 C  py               49      0.227918   9 C  py        
     5      0.208092   1 C  py               38     -0.208092   7 C  py        
    30      0.204930   5 C  py               63     -0.204930  11 C  py        
    27      0.193802   5 C  py               60     -0.193802  11 C  py        
     8      0.187827   1 C  py               41     -0.187827   7 C  py        

 Vector   19  Occ=2.000000D+00  E=-3.052862D-01  Symmetry=e2g
              MO Center= -3.6D-15, -4.5D-16, -1.9D-17, r^2= 4.3D+00
   Bfn.  Coefficient  Atom+Function         Bfn.  Coefficient  Atom+Function  
  ----- ------------  ---------------      ----- ------------  ---------------
    26      0.226072   5 C  px               59     -0.226072  11 C  px        
     4      0.211783   1 C  px               37     -0.211783   7 C  px        
    18     -0.207138   3 C  px               51      0.207138   9 C  px        
    15     -0.191957   3 C  px               48      0.191957   9 C  px        
    21      0.190358   4 H  s                54      0.190358  10 H  s         

 Vector   20  Occ=2.000000D+00  E=-2.217945D-01  Symmetry=e1g
              MO Center= -3.9D-16, -1.4D-15, -6.1D-16, r^2= 3.0D+00
   Bfn.  Coefficient  Atom+Function         Bfn.  Coefficient  Atom+Function  
  ----- ------------  ---------------      ----- ------------  ---------------
    31      0.313974   5 C  pz               64     -0.313974  11 C  pz        
    28      0.290317   5 C  pz               61     -0.290317  11 C  pz        
    20      0.192854   3 C  pz               53     -0.192854   9 C  pz        
    17      0.178323   3 C  pz               50     -0.178323   9 C  pz        

 Vector   21  Occ=2.000000D+00  E=-2.217945D-01  Symmetry=e1g
              MO Center= -7.3D-17,  8.8D-17, -1.8D-16, r^2= 3.0D+00
   Bfn.  Coefficient  Atom+Function         Bfn.  Coefficient  Atom+Function  
  ----- ------------  ---------------      ----- ------------  ---------------
     9      0.292618   1 C  pz               42     -0.292618   7 C  pz        
     6      0.270569   1 C  pz               39     -0.270569   7 C  pz        
    20      0.251202   3 C  pz               53     -0.251202   9 C  pz        
    17      0.232274   3 C  pz               50     -0.232274   9 C  pz        

 Vector   22  Occ=0.000000D+00  E=-3.077991D-02  Symmetry=e2u
              MO Center= -8.5D-16,  1.6D-15,  1.3D-16, r^2= 3.3D+00
   Bfn.  Coefficient  Atom+Function         Bfn.  Coefficient  Atom+Function  
  ----- ------------  ---------------      ----- ------------  ---------------
     9      0.541495   1 C  pz               42      0.541495   7 C  pz        
    20     -0.344415   3 C  pz               53     -0.344415   9 C  pz        
     6      0.316062   1 C  pz               39      0.316062   7 C  pz        
    17     -0.201029   3 C  pz               50     -0.201029   9 C  pz        
    31     -0.197080   5 C  pz               64     -0.197080  11 C  pz        

 Vector   23  Occ=0.000000D+00  E=-3.077991D-02  Symmetry=e2u
              MO Center= -7.6D-16,  3.3D-16, -1.6D-16, r^2= 3.3D+00
   Bfn.  Coefficient  Atom+Function         Bfn.  Coefficient  Atom+Function  
  ----- ------------  ---------------      ----- ------------  ---------------
    31      0.511480   5 C  pz               64      0.511480  11 C  pz        
    20     -0.426416   3 C  pz               53     -0.426416   9 C  pz        
    28      0.298542   5 C  pz               61      0.298542  11 C  pz        
    17     -0.248892   3 C  pz               50     -0.248892   9 C  pz        

 Vector   24  Occ=0.000000D+00  E= 6.709252D-02  Symmetry=a1g
              MO Center=  2.2D-16,  4.4D-16, -8.6D-32, r^2= 7.9D+00
   Bfn.  Coefficient  Atom+Function         Bfn.  Coefficient  Atom+Function  
  ----- ------------  ---------------      ----- ------------  ---------------
    11     -0.502615   2 H  s                22     -0.502615   4 H  s         
    33     -0.502615   6 H  s                44     -0.502615   8 H  s         
    55     -0.502615  10 H  s                66     -0.502615  12 H  s         
     3      0.471410   1 C  s                14      0.471410   3 C  s         
    25      0.471410   5 C  s                36      0.471410   7 C  s         

 Vector   25  Occ=0.000000D+00  E= 9.615867D-02  Symmetry=e1u
              MO Center= -1.0D-14,  8.8D-15,  1.2D-17, r^2= 9.0D+00
   Bfn.  Coefficient  Atom+Function         Bfn.  Coefficient  Atom+Function  
  ----- ------------  ---------------      ----- ------------  ---------------
    33      0.950912   6 H  s                66     -0.950912  12 H  s         
    30      0.518095   5 C  py               63      0.518095  11 C  py        
    11     -0.481340   2 H  s                44      0.481340   8 H  s         
    22      0.469572   4 H  s                55     -0.469572  10 H  s         
     8      0.407002   1 C  py               41      0.407002   7 C  py        

 Vector   26  Occ=0.000000D+00  E= 9.615867D-02  Symmetry=e1u
              MO Center= -3.1D-16, -1.7D-16,  1.2D-17, r^2= 9.0D+00
   Bfn.  Coefficient  Atom+Function         Bfn.  Coefficient  Atom+Function  
  ----- ------------  ---------------      ----- ------------  ---------------
    22      0.826911   4 H  s                55     -0.826911  10 H  s         
    11      0.820117   2 H  s                44     -0.820117   8 H  s         
    18      0.495080   3 C  px               51      0.495080   9 C  px        
     7      0.453032   1 C  px               40      0.453032   7 C  px        
    29      0.341940   5 C  px               62      0.341940  11 C  px        

 Vector   27  Occ=0.000000D+00  E= 1.075023D-01  Symmetry=b1g
              MO Center=  2.0D-15, -2.2D-16, -1.5D-18, r^2= 3.5D+00
   Bfn.  Coefficient  Atom+Function         Bfn.  Coefficient  Atom+Function  
  ----- ------------  ---------------      ----- ------------  ---------------
     9      0.546883   1 C  pz               20     -0.546883   3 C  pz        
    31      0.546883   5 C  pz               42     -0.546883   7 C  pz        
    53      0.546883   9 C  pz               64     -0.546883  11 C  pz        
     6      0.256108   1 C  pz               17     -0.256108   3 C  pz        
    28      0.256108   5 C  pz               39     -0.256108   7 C  pz        

 Vector   28  Occ=0.000000D+00  E= 1.367384D-01  Symmetry=e2g
              MO Center=  7.5D-15,  2.8D-15, -5.9D-17, r^2= 9.6D+00
   Bfn.  Coefficient  Atom+Function         Bfn.  Coefficient  Atom+Function  
  ----- ------------  ---------------      ----- ------------  ---------------
    11      1.090238   2 H  s                44      1.090238   8 H  s         
    22     -0.625609   4 H  s                55     -0.625609  10 H  s         
     3     -0.615036   1 C  s                36     -0.615036   7 C  s         
     7      0.486074   1 C  px               40     -0.486074   7 C  px        
     8     -0.475951   1 C  py               41      0.475951   7 C  py        

 Vector   29  Occ=0.000000D+00  E= 1.367384D-01  Symmetry=e2g
              MO Center=  1.8D-15, -1.2D-14, -3.1D-17, r^2= 9.6D+00
   Bfn.  Coefficient  Atom+Function         Bfn.  Coefficient  Atom+Function  
  ----- ------------  ---------------      ----- ------------  ---------------
    33      0.990645   6 H  s                66      0.990645  12 H  s         
    22     -0.897704   4 H  s                55     -0.897704  10 H  s         
    30      0.587790   5 C  py               63     -0.587790  11 C  py        
    25     -0.558852   5 C  s                58     -0.558852  11 C  s         
    18     -0.528567   3 C  px               51      0.528567   9 C  px        

 Vector   30  Occ=0.000000D+00  E= 1.460047D-01  Symmetry=b2u
              MO Center=  1.0D-15,  2.1D-15,  4.1D-18, r^2= 1.0D+01
   Bfn.  Coefficient  Atom+Function         Bfn.  Coefficient  Atom+Function  
  ----- ------------  ---------------      ----- ------------  ---------------
    11      0.872872   2 H  s                22     -0.872872   4 H  s         
    33      0.872872   6 H  s                44     -0.872872   8 H  s         
    55      0.872872  10 H  s                66     -0.872872  12 H  s         
    18     -0.561383   3 C  px               30      0.561383   5 C  py        
    51     -0.561383   9 C  px               63      0.561383  11 C  py        

 Vector   31  Occ=0.000000D+00  E= 2.862748D-01  Symmetry=e2g
              MO Center= -1.2D-14, -4.3D-15,  1.1D-16, r^2= 4.3D+00
   Bfn.  Coefficient  Atom+Function         Bfn.  Coefficient  Atom+Function  
  ----- ------------  ---------------      ----- ------------  ---------------
    25      1.115648   5 C  s                58      1.115648  11 C  s         
    30      0.911848   5 C  py               63     -0.911848  11 C  py        
    33      0.693360   6 H  s                66      0.693360  12 H  s         
     7     -0.682969   1 C  px               40      0.682969   7 C  px        
    18     -0.617536   3 C  px               51      0.617536   9 C  px        

 Vector   32  Occ=0.000000D+00  E= 2.862748D-01  Symmetry=e2g
              MO Center= -1.3D-15, -5.7D-17, -4.0D-17, r^2= 4.3D+00
   Bfn.  Coefficient  Atom+Function         Bfn.  Coefficient  Atom+Function  
  ----- ------------  ---------------      ----- ------------  ---------------
     3      0.990290   1 C  s                36      0.990290   7 C  s         
    14     -0.942070   3 C  s                47     -0.942070   9 C  s         
     8     -0.784340   1 C  py               41      0.784340   7 C  py        
    18     -0.680882   3 C  px               51      0.680882   9 C  px        
    11      0.615451   2 H  s                44      0.615451   8 H  s         

 Vector   33  Occ=0.000000D+00  E= 3.136630D-01  Symmetry=e1u
              MO Center=  1.0D-14,  1.2D-15,  4.3D-18, r^2= 4.7D+00
   Bfn.  Coefficient  Atom+Function         Bfn.  Coefficient  Atom+Function  
  ----- ------------  ---------------      ----- ------------  ---------------
    29      1.048388   5 C  px               62      1.048388  11 C  px        
     3      1.023898   1 C  s                36     -1.023898   7 C  s         
    19     -0.897786   3 C  py               52     -0.897786   9 C  py        
    14      0.618403   3 C  s                47     -0.618403   9 C  s         
    25     -0.405495   5 C  s                58      0.405495  11 C  s         

 Vector   34  Occ=0.000000D+00  E= 3.136630D-01  Symmetry=e1u
              MO Center= -1.4D-15, -4.6D-15, -2.9D-17, r^2= 4.7D+00
   Bfn.  Coefficient  Atom+Function         Bfn.  Coefficient  Atom+Function  
  ----- ------------  ---------------      ----- ------------  ---------------
    25      0.948183   5 C  s                58     -0.948183  11 C  s         
     8      0.865075   1 C  py               41      0.865075   7 C  py        
     7      0.827912   1 C  px               14      0.825260   3 C  s         
    40      0.827912   7 C  px               47     -0.825260   9 C  s         
    19      0.744051   3 C  py               52      0.744051   9 C  py        

 Vector   35  Occ=0.000000D+00  E= 4.683888D-01  Symmetry=b2u
              MO Center=  3.3D-15,  6.9D-15, -3.8D-18, r^2= 4.8D+00
   Bfn.  Coefficient  Atom+Function         Bfn.  Coefficient  Atom+Function  
  ----- ------------  ---------------      ----- ------------  ---------------
     3      1.044675   1 C  s                14     -1.044675   3 C  s         
[...]
          27    -0.06624     0.03795     0.00000    -0.08621    -0.03314     0.00000
          28     0.00000     0.00000     0.11961     0.00000     0.00000    -0.04073
          29     0.00000     0.00000     0.03205     0.00000     0.00000     0.34719
          30     0.44357    -0.25414     0.00000     0.44685     0.17175     0.00000
          31     0.00000     0.00000     0.02905     0.00000     0.00000    -0.06964
          32     0.00000     0.00000     0.10843     0.00000     0.00000    -0.02989
          33    -0.00025     0.07635     0.00000     0.07180    -0.05809     0.00000
          34     0.00000     0.00000     0.03205     0.00000     0.00000    -0.34720
          35     0.00000     0.00000     0.11961     0.00000     0.00000     0.04074
          36     0.00170    -0.51122     0.00000    -0.37216     0.30111     0.00000

                   19          20          21          22          23          24
 
 P.Frequency     1022.38     1027.65     1033.50     1182.66     1191.69     1191.69
 
           1    -0.04860     0.00000     0.08005     0.01688     0.00035     0.04294
           2    -0.04860     0.00000    -0.08005     0.01688    -0.00035     0.04294
           3     0.00000     0.05934     0.00000     0.00000     0.00000     0.00000
           4    -0.28243     0.00000     0.07988     0.28159     0.00052     0.37870
           5    -0.28243     0.00000    -0.07988     0.28159    -0.00052     0.37870
           6     0.00000    -0.35134     0.00000     0.00000     0.00000     0.00000
           7     0.08736     0.00000    -0.10936     0.00618     0.01337     0.00827
           8    -0.01217     0.00000    -0.02930    -0.02306    -0.05087    -0.02922
           9     0.00000    -0.05934     0.00000     0.00000     0.00000     0.00000
          10     0.13620     0.00000    -0.10911     0.10307     0.11969     0.06992
          11    -0.17026     0.00000    -0.02924    -0.38466    -0.44810    -0.25849
          12     0.00000     0.35134     0.00000     0.00000     0.00000     0.00000
          13    -0.01217     0.00000     0.02930    -0.02306    -0.05087     0.02922
          14     0.08736     0.00000     0.10936     0.00618     0.01337    -0.00827
          15     0.00000     0.05934     0.00000     0.00000     0.00000     0.00000
          16    -0.17025     0.00000     0.02924    -0.38466    -0.44810     0.25849
          17     0.13620     0.00000     0.10911     0.10307     0.11969    -0.06992
          18     0.00000    -0.35134     0.00000     0.00000     0.00000     0.00000
          19    -0.04860     0.00000     0.08005     0.01688    -0.00035    -0.04294
          20    -0.04860     0.00000    -0.08005     0.01688     0.00035    -0.04294
          21     0.00000    -0.05934     0.00000     0.00000     0.00000     0.00000
          22    -0.28243     0.00000     0.07988     0.28159    -0.00052    -0.37870
          23    -0.28243     0.00000    -0.07988     0.28159     0.00052    -0.37870
          24     0.00000     0.35134     0.00000     0.00000     0.00000     0.00000
          25     0.08736     0.00000    -0.10936     0.00618    -0.01337    -0.00827
          26    -0.01217     0.00000    -0.02930    -0.02306     0.05087     0.02922
          27     0.00000     0.05934     0.00000     0.00000     0.00000     0.00000
          28     0.13620     0.00000    -0.10911     0.10307    -0.11969    -0.06992
          29    -0.17026     0.00000    -0.02924    -0.38466     0.44810     0.25849
          30     0.00000    -0.35134     0.00000     0.00000     0.00000     0.00000
          31    -0.01217     0.00000     0.02930    -0.02306     0.05087    -0.02922
          32     0.08736     0.00000     0.10936     0.00618    -0.01337     0.00827
          33     0.00000    -0.05934     0.00000     0.00000     0.00000     0.00000
          34    -0.17025     0.00000     0.02924    -0.38466     0.44810    -0.25849
          35     0.13620     0.00000     0.10911     0.10307    -0.11969     0.06992
          36     0.00000     0.35134     0.00000     0.00000     0.00000     0.00000

                   25          26          27          28          29          30
 
 P.Frequency     1334.64     1381.83     1487.81     1487.81     1587.83     1587.83
 
           1     0.08161    -0.03817     0.04342     0.07152    -0.04573     0.10029
           2     0.08161    -0.03817    -0.04342     0.07152     0.04573     0.10029
           3     0.00000     0.00000     0.00000     0.00000     0.00000     0.00000
           4    -0.05826     0.25561     0.05322    -0.28140    -0.05021    -0.13484
           5    -0.05826     0.25561    -0.05321    -0.28141     0.05021    -0.13484
           6     0.00000     0.00000     0.00000     0.00000     0.00000     0.00000
           7     0.02987     0.01397     0.00698    -0.06445     0.06303    -0.03575
           8    -0.11147    -0.05215     0.09256     0.03509    -0.11028    -0.08300
           9     0.00000     0.00000     0.00000     0.00000     0.00000     0.00000
          10    -0.02132    -0.09356     0.12555    -0.01145    -0.00845    -0.08407
          11     0.07958     0.34917    -0.32316    -0.20908     0.16871     0.07619
          12     0.00000     0.00000     0.00000     0.00000     0.00000     0.00000
          13    -0.11147     0.05215    -0.09256     0.03509    -0.11028     0.08300
          14     0.02987    -0.01397    -0.00698    -0.06445     0.06303     0.03575
          15     0.00000     0.00000     0.00000     0.00000     0.00000     0.00000
          16     0.07958    -0.34917     0.32317    -0.20907     0.16871    -0.07618
          17    -0.02132     0.09356    -0.12555    -0.01145    -0.00845     0.08407
          18     0.00000     0.00000     0.00000     0.00000     0.00000     0.00000
          19     0.08161     0.03817     0.04342     0.07152     0.04573    -0.10029
          20     0.08161     0.03817    -0.04342     0.07152    -0.04573    -0.10029
          21     0.00000     0.00000     0.00000     0.00000     0.00000     0.00000
          22    -0.05826    -0.25561     0.05322    -0.28140     0.05021     0.13484
          23    -0.05826    -0.25561    -0.05321    -0.28141    -0.05021     0.13484
          24     0.00000     0.00000     0.00000     0.00000     0.00000     0.00000
          25     0.02987    -0.01397     0.00698    -0.06445    -0.06303     0.03575
          26    -0.11147     0.05215     0.09256     0.03509     0.11028     0.08300
          27     0.00000     0.00000     0.00000     0.00000     0.00000     0.00000
          28    -0.02132     0.09356     0.12555    -0.01145     0.00845     0.08407
          29     0.07958    -0.34917    -0.32316    -0.20908    -0.16871    -0.07619
          30     0.00000     0.00000     0.00000     0.00000     0.00000     0.00000
          31    -0.11147    -0.05215    -0.09256     0.03509     0.11028    -0.08300
          32     0.02987     0.01397    -0.00698    -0.06445    -0.06303    -0.03575
          33     0.00000     0.00000     0.00000     0.00000     0.00000     0.00000
          34     0.07958     0.34917     0.32317    -0.20907    -0.16871     0.07618
          35    -0.02132    -0.09356    -0.12555    -0.01145     0.00845    -0.08407
          36     0.00000     0.00000     0.00000     0.00000     0.00000     0.00000

                   31          32          33          34          35          36
 
 P.Frequency     3117.91     3124.37     3124.37     3140.72     3140.72     3154.84
 
           1    -0.02315    -0.00109    -0.03314     0.00225    -0.03462     0.02538
           2     0.02315    -0.00112     0.03314     0.00223     0.03462    -0.02538
           3     0.00000     0.00000     0.00000     0.00000     0.00000     0.00000
           4     0.27624     0.00147     0.39023    -0.00322     0.38863    -0.27390
           5    -0.27624     0.00186    -0.39023    -0.00298    -0.38863     0.27390
           6     0.00000     0.00000     0.00000     0.00000     0.00000     0.00000
           7     0.03162     0.03899     0.02301    -0.04136    -0.02295     0.03466
           8     0.00847     0.01126     0.00476    -0.00944    -0.00899     0.00929
           9     0.00000     0.00000     0.00000     0.00000     0.00000     0.00000
          10    -0.37734    -0.46121    -0.26729     0.46024     0.26460    -0.37415
          11    -0.10111    -0.12480    -0.06951     0.12105     0.07482    -0.10025
          12     0.00000     0.00000     0.00000     0.00000     0.00000     0.00000
          13    -0.00847    -0.01126     0.00475    -0.00945     0.00899     0.00929
          14    -0.03162    -0.03901     0.02297    -0.04138     0.02292     0.03466
          15     0.00000     0.00000     0.00000     0.00000     0.00000     0.00000
          16     0.10111     0.12487    -0.06938     0.12110    -0.07475    -0.10025
          17     0.37734     0.46147    -0.26683     0.46040    -0.26431    -0.37415
          18     0.00000     0.00000     0.00000     0.00000     0.00000     0.00000
          19    -0.02315     0.00109     0.03314     0.00225    -0.03462    -0.02538
          20     0.02315     0.00112    -0.03314     0.00223     0.03462     0.02538
          21     0.00000     0.00000     0.00000     0.00000     0.00000     0.00000
          22     0.27624    -0.00147    -0.39023    -0.00322     0.38863     0.27390
          23    -0.27624    -0.00186     0.39023    -0.00298    -0.38863    -0.27390
          24     0.00000     0.00000     0.00000     0.00000     0.00000     0.00000
          25     0.03162    -0.03899    -0.02301    -0.04136    -0.02295    -0.03466
          26     0.00847    -0.01126    -0.00476    -0.00944    -0.00899    -0.00929
          27     0.00000     0.00000     0.00000     0.00000     0.00000     0.00000
          28    -0.37734     0.46121     0.26729     0.46024     0.26460     0.37415
          29    -0.10111     0.12480     0.06951     0.12105     0.07482     0.10025
          30     0.00000     0.00000     0.00000     0.00000     0.00000     0.00000
          31    -0.00847     0.01126    -0.00475    -0.00945     0.00899    -0.00929
          32    -0.03162     0.03901    -0.02297    -0.04138     0.02292    -0.03466
          33     0.00000     0.00000     0.00000     0.00000     0.00000     0.00000
          34     0.10111    -0.12487     0.06938     0.12110    -0.07475     0.10025
          35     0.37734    -0.46147     0.26683     0.46040    -0.26431     0.37415
          36     0.00000     0.00000     0.00000     0.00000     0.00000     0.00000



 ----------------------------------------------------------------------------
 Normal Eigenvalue ||    Projected Derivative Dipole Moments (debye/angs)
  Mode   [cm**-1]  ||      [d/dqX]             [d/dqY]           [d/dqZ]
 ------ ---------- || ------------------ ------------------ -----------------
    1       -0.000 ||       0.000              -0.000             0.000
    2        0.000 ||       0.000              -0.000             0.000
    3        0.000 ||      -0.000              -0.000             0.000
    4        0.000 ||       0.000               0.000             0.001
    5        0.000 ||      -0.000              -0.000             0.001
    6        0.000 ||      -0.000              -0.000             0.000
    7      408.004 ||      -0.000              -0.000            -0.000
    8      408.004 ||       0.000               0.000             0.000
    9      630.465 ||       0.000               0.000             0.000
   10      630.465 ||       0.000               0.000             0.000
   11      690.707 ||      -0.000              -0.000             1.635
   12      716.577 ||       0.000               0.000             0.000
   13      865.338 ||      -0.000              -0.000            -0.000
   14      865.338 ||       0.000               0.000             0.000
   15      977.495 ||       0.000              -0.000             0.000
   16      995.708 ||      -0.000              -0.000             0.000
   17      995.708 ||       0.000               0.000            -0.000
   18     1022.384 ||      -0.215               0.215             0.000
   19     1022.384 ||      -0.215              -0.215             0.000
   20     1027.652 ||      -0.000              -0.000            -0.000
   21     1033.503 ||       0.000              -0.000             0.000
   22     1182.656 ||      -0.000              -0.000             0.000
   23     1191.693 ||      -0.000              -0.000             0.000
   24     1191.693 ||       0.000               0.000             0.000
   25     1334.636 ||       0.000               0.000             0.000
   26     1381.826 ||       0.000              -0.000             0.000
   27     1487.813 ||       0.382              -0.382             0.000
   28     1487.813 ||      -0.382              -0.382             0.000
   29     1587.829 ||       0.000               0.000             0.000
   30     1587.829 ||       0.000              -0.000             0.000
   31     3117.914 ||       0.000              -0.000             0.000
   32     3124.368 ||      -0.000               0.000             0.000
   33     3124.368 ||      -0.000               0.000             0.000
   34     3140.719 ||      -0.642              -0.642             0.000
   35     3140.719 ||      -0.642               0.642             0.000
   36     3154.836 ||      -0.000               0.000             0.000
 ----------------------------------------------------------------------------



  
  
 ----------------------------------------------------------------------------
 Normal Eigenvalue ||           Projected Infra Red Intensities
  Mode   [cm**-1]  || [atomic units] [(debye/angs)**2] [(KM/mol)] [arbitrary]
 ------ ---------- || -------------- ----------------- ---------- -----------
    1       -0.000 ||    0.000000           0.000         0.000       0.000
    2        0.000 ||    0.000000           0.000         0.000       0.000
    3        0.000 ||    0.000000           0.000         0.000       0.000
    4        0.000 ||    0.000000           0.000         0.000       0.000
    5        0.000 ||    0.000000           0.000         0.000       0.000
    6        0.000 ||    0.000000           0.000         0.000       0.000
    7      408.004 ||    0.000000           0.000         0.000       0.000
    8      408.004 ||    0.000000           0.000         0.000       0.000
    9      630.465 ||    0.000000           0.000         0.000       0.000
   10      630.465 ||    0.000000           0.000         0.000       0.000
   11      690.707 ||    0.115883           2.674       112.968     189.132
   12      716.577 ||    0.000000           0.000         0.000       0.000
   13      865.338 ||    0.000000           0.000         0.000       0.000
   14      865.338 ||    0.000000           0.000         0.000       0.000
   15      977.495 ||    0.000000           0.000         0.000       0.000
   16      995.708 ||    0.000000           0.000         0.000       0.000
   17      995.708 ||    0.000000           0.000         0.000       0.000
   18     1022.384 ||    0.004023           0.093         3.922       6.566
   19     1022.384 ||    0.004023           0.093         3.922       6.566
   20     1027.652 ||    0.000000           0.000         0.000       0.000
   21     1033.503 ||    0.000000           0.000         0.000       0.000
   22     1182.656 ||    0.000000           0.000         0.000       0.000
   23     1191.693 ||    0.000000           0.000         0.000       0.000
   24     1191.693 ||    0.000000           0.000         0.000       0.000
   25     1334.636 ||    0.000000           0.000         0.000       0.000
   26     1381.826 ||    0.000000           0.000         0.000       0.000
   27     1487.813 ||    0.012624           0.291        12.306      20.603
   28     1487.813 ||    0.012624           0.291        12.306      20.603
   29     1587.829 ||    0.000000           0.000         0.000       0.000
   30     1587.829 ||    0.000000           0.000         0.000       0.000
   31     3117.914 ||    0.000000           0.000         0.000       0.000
   32     3124.368 ||    0.000000           0.000         0.000       0.000
   33     3124.368 ||    0.000000           0.000         0.000       0.000
   34     3140.719 ||    0.035699           0.824        34.801      58.265
   35     3140.719 ||    0.035699           0.824        34.801      58.265
   36     3154.836 ||    0.000000           0.000         0.000       0.000
 ----------------------------------------------------------------------------



 vib:animation  F

 Task  times  cpu:        0.0s     wall:        0.0s
 Summary of allocated global arrays
-----------------------------------
  No active global arrays



                         GA Statistics for process    0
                         ------------------------------

       create   destroy   get      put      acc     scatter   gather  read&inc
calls: 9.95e+04 9.95e+04 1.88e+08 1.32e+08 1.02e+08 8.16e+04    0     1.45e+05 
number of processes/call 1.00e+00 1.00e+00 1.00e+00 1.00e+00 0.00e+00
bytes total:             3.76e+10 4.60e+09 2.90e+10 1.13e+09 0.00e+00 1.16e+06
bytes remote:            0.00e+00 0.00e+00 0.00e+00 0.00e+00 0.00e+00 0.00e+00
Max memory consumed for GA by this process: 5523264 bytes
MA_summarize_allocated_blocks: starting scan ...
MA_summarize_allocated_blocks: scan completed: 0 heap blocks, 0 stack blocks
MA usage statistics:

	allocation statistics:
					      heap	     stack
					      ----	     -----
	current number of blocks	         0	         0
	maximum number of blocks	        25	        51
	current total bytes		         0	         0
	maximum total bytes		   8780936	  22514040
	maximum total K-bytes		      8781	     22515
	maximum total M-bytes		         9	        23


                                NWChem Input Module
                                -------------------





                                     CITATION
                                     --------
                Please cite the following reference when publishing
                           results obtained with NWChem:

                 M. Valiev, E.J. Bylaska, N. Govind, K. Kowalski,
              T.P. Straatsma, H.J.J. van Dam, D. Wang, J. Nieplocha,
                        E. Apra, T.L. Windus, W.A. de Jong
                 "NWChem: a comprehensive and scalable open-source
                  solution for large scale molecular simulations"
                      Comput. Phys. Commun. 181, 1477 (2010)
                           doi:10.1016/j.cpc.2010.04.018

                              AUTHORS & CONTRIBUTORS
                              ----------------------
          E. Apra, E. J. Bylaska, W. A. de Jong, N. Govind, K. Kowalski,
       T. P. Straatsma, M. Valiev, H. J. J. van Dam, D. Wang, T. L. Windus,
        J. Hammond, J. Autschbach, K. Bhaskaran-Nair, J. Brabec, K. Lopata,
     F. Aquino, S. Hirata, M. T. Hackler, J. Mullin, P. Nichols, R. Peverati,
    J. Pittner, Y. Zhao, P.-D. Fan, R. J. Harrison, M. Dupuis, D. Silverstein,
    D. M. A. Smith, J. Nieplocha, V. Tipparaju, M. Krishnan, B. E. Van Kuiken,
        A. Vazquez-Mayagoitia, L. Jensen, M. Swart, Q. Wu, T. Van Voorhis,
     A. A. Auer, M. Nooijen, L. D. Crosby, E. Brown, G. Cisneros, G. I. Fann,
     H. Fruchtl, J. Garza, K. Hirao, R. Kendall, J. A. Nichols, K. Tsemekhman,
      K. Wolinski, J. Anchell, D. Bernholdt, P. Borowski, T. Clark, D. Clerc,
      H. Dachsel, M. Deegan, K. Dyall, D. Elwood, E. Glendening, M. Gutowski,
      A. Hess, J. Jaffe, B. Johnson, J. Ju, R. Kobayashi, R. Kutteh, Z. Lin,
   R. Littlefield, X. Long, B. Meng, T. Nakajima, S. Niu, L. Pollack, M. Rosing,
   K. Glaesemann, G. Sandrone, M. Stave, H. Taylor, G. Thomas, J. H. van Lenthe,
                                A. Wong, Z. Zhang.

 Total times  cpu:     5450.9s     wall:     5457.1s
