102
	Energy:     152.6925969
C          0.81752      -31.55589       -0.00327
C          0.75293      -30.38312       -0.00334
C          0.66612      -28.94870       -0.00336
C          0.58914      -27.77667       -0.00329
C          0.49017      -26.34301       -0.00311
C          0.40616      -25.17146       -0.00283
C          0.30175      -23.73813       -0.00235
C          0.21664      -22.56667       -0.00181
C          0.11418      -21.13313       -0.00099
C          0.03376      -19.96134       -0.00017
C         -0.06018      -18.52711        0.00097
C         -0.13134      -17.35472        0.00202
C         -0.21205      -15.91958        0.00339
C         -0.27103      -14.74651        0.00457
C         -0.33590      -13.31043        0.00601
C         -0.38138      -12.13677        0.00716
C         -0.42947      -10.69988        0.00846
C         -0.46124       -9.52577        0.00938
C         -0.49270       -8.08825        0.01030
C         -0.51112       -6.91385        0.01078
C         -0.52655       -5.47589        0.01107
C         -0.53224       -4.30136        0.01095
C         -0.53248       -2.86312        0.01041
C         -0.52620       -1.68860        0.00955
C         -0.51227       -0.25021        0.00808
C         -0.49502        0.92420        0.00645
C         -0.46834        2.36264        0.00406
C         -0.44148        3.53686        0.00175
C         -0.40393        4.97529       -0.00137
C         -0.36923        6.14931       -0.00413
C         -0.32315        7.58774       -0.00763
C         -0.28264        8.76157       -0.01048
C         -0.23063       10.20007       -0.01384
C         -0.18647       11.37377       -0.01631
C         -0.13112       12.81242       -0.01892
C         -0.08528       13.98606       -0.02048
C         -0.02883       15.42495       -0.02172
C          0.01708       16.59860       -0.02193
C          0.07295       18.03780       -0.02129
C          0.11785       19.21149       -0.01981
C          0.17211       20.65105       -0.01701
C          0.21548       21.82481       -0.01375
C          0.26778       23.26495       -0.00879
C          0.30956       24.43895       -0.00389
C          0.36012       25.88146        0.00293
C          0.40066       27.05671        0.00912
C          0.45019       28.50778        0.01731
C          0.49007       29.68713        0.02433
C          0.53956       31.15809        0.03334
C          0.57940       32.34560        0.04073
H          0.61455       33.39441        0.04729
C          0.88813      -32.99119       -0.00314
C          0.93746      -34.16471       -0.00301
C          0.98934      -35.60082       -0.00284
C          1.02342      -36.77487       -0.00272
C          1.05714      -38.21155       -0.00259
C          1.07733      -39.38593       -0.00252
C          1.09522      -40.82293       -0.00246
C          1.10379      -41.99745       -0.00245
C          1.10882      -43.43462       -0.00248
C          1.10823      -44.60917       -0.00254
C          1.10345      -46.04643       -0.00265
C          1.09629      -47.22095       -0.00276
C          1.08503      -48.65828       -0.00294
C          1.07438      -49.83278       -0.00310
C          1.06090      -51.27021       -0.00330
C          1.05077      -52.44471       -0.00348
C          1.04049      -53.88232       -0.00368
C          1.03566      -55.05685       -0.00383
C          1.03449      -56.49466       -0.00400
C          1.03945      -57.66919       -0.00410
C          1.05218      -59.10712       -0.00420
C          1.06961      -60.28153       -0.00425
C          1.09797      -61.71944       -0.00426
C          1.12749      -62.89360       -0.00425
C          1.16912      -64.33140       -0.00420
C          1.20707      -65.50532       -0.00414
C          1.25604      -66.94311       -0.00405
C          1.29662      -68.11694       -0.00398
C          1.34542      -69.55498       -0.00389
C          1.38275      -70.72892       -0.00383
C          1.42493      -72.16742       -0.00378
C          1.45506      -73.34157       -0.00375
C          1.48739      -74.78060       -0.00374
C          1.50940      -75.95492       -0.00376
C          1.53248      -77.39441       -0.00379
C          1.54834      -78.56884       -0.00384
C          1.56570      -80.00869       -0.00390
C          1.57895      -81.18315       -0.00396
C          1.59519      -82.62331       -0.00402
C          1.60936      -83.79777       -0.00408
C          1.62827      -85.23820       -0.00413
C          1.64566      -86.41263       -0.00417
C          1.66916      -87.85352       -0.00420
C          1.69044      -89.02808       -0.00422
C          1.71855      -90.47119       -0.00423
C          1.74308      -91.64690       -0.00424
C          1.77468      -93.09848       -0.00423
C          1.80126      -94.27822       -0.00423
C          1.83501      -95.74966       -0.00422
C          1.86251      -96.93754       -0.00421
H          1.88689      -97.98667       -0.00420
