48
	Energy:      -4.9630774
C          0.69764      -28.92743        0.00225
C          0.40304      -27.76055       -0.00863
H          0.95661      -29.95355        0.01183
C          0.05920      -26.39426       -0.02059
C         -0.23241      -25.22666       -0.02941
C         -0.56996      -23.85886       -0.03745
C         -0.85345      -22.68926       -0.04181
C         -1.17779      -21.31826       -0.04358
C         -1.44623      -20.14512       -0.04200
C         -1.74790      -18.76897       -0.03644
C         -1.99203      -17.59056       -0.02863
C         -2.25884      -16.20728       -0.01619
C         -2.46722      -15.02208       -0.00322
C         -2.68485      -13.63029        0.01412
C         -2.84478      -12.43763        0.03002
C         -2.99821      -11.03735        0.04906
C         -3.09727       -9.83811        0.06479
C         -3.17300       -8.43149        0.08167
C         -3.20113       -7.22847        0.09387
C         -3.18975       -5.81983        0.10473
C         -3.14149       -4.61741        0.11037
C         -3.04015       -3.21235        0.11214
C         -2.91647       -2.01534        0.10914
C         -2.73051       -0.61899        0.10015
C         -2.53967        0.56910        0.08785
C         -2.28296        1.95408        0.06827
C         -2.04017        3.13254        0.04761
C         -1.73409        4.50730        0.01948
C         -1.46011        5.67878       -0.00707
C         -1.13130        7.04817       -0.04010
C         -0.85027        8.21792       -0.06888
C         -0.52793        9.58881       -0.10206
C         -0.26485       10.76276       -0.12877
C          0.02247       12.14151       -0.15696
C          0.24458       13.32399       -0.17730
C          0.47235       14.71395       -0.19575
C          0.63541       15.90612       -0.20612
C          0.78657       17.30656       -0.21133
C          0.88020       18.50622       -0.20948
C          0.94801       19.91313       -0.19982
C          0.97142       21.11612       -0.18531
C          0.96089       22.52447       -0.16142
C          0.92327       23.72692       -0.13576
C          0.85057       25.13322       -0.10045
C          0.76977       26.33339       -0.06683
C          0.65979       27.73717       -0.02462
C          0.55966       28.93583        0.01258
H          0.47153       29.98998        0.04532
