26
	Energy:      -0.1923181
C         -0.03389       14.75374        0.00205
C         -0.21868       13.56824       -0.00192
H          0.12911       15.79945        0.00556
C         -0.41727       12.17942       -0.00627
C         -0.55572       10.98767       -0.00950
C         -0.66690        9.58931       -0.01244
C         -0.70815        8.39032       -0.01410
C         -0.68745        6.98776       -0.01494
C         -0.60993        5.79055       -0.01470
C         -0.45377        4.39653       -0.01338
C         -0.27346        3.21039       -0.01149
C         -0.02141        1.83038       -0.00858
C          0.21285        0.65366       -0.00573
C          0.49018       -0.72153       -0.00221
C          0.71105       -1.90084        0.00071
C          0.93159       -3.28623        0.00380
C          1.07110       -4.47786        0.00597
C          1.16323       -5.87758        0.00781
C          1.17219       -7.07726        0.00868
C          1.09741       -8.47800        0.00885
C          0.96277       -9.67014        0.00829
C          0.73072      -11.05364        0.00691
C          0.48135      -12.22725        0.00522
C          0.14696      -13.58985        0.00284
C         -0.15638      -14.75075        0.00063
H         -0.42390      -15.77471       -0.00131
