30
	Energy:      -2.8949740
C          0.15712      -17.31847       -0.02637
C         -0.09000      -16.14024       -0.01016
H          0.37424      -18.35419       -0.04064
C         -0.37747      -14.76036        0.00816
C         -0.61942      -13.58109        0.02261
C         -0.89638      -12.19911        0.03759
C         -1.12522      -11.01721        0.04825
C         -1.38157       -9.63124        0.05789
C         -1.58786       -8.44516        0.06346
C         -1.81150       -7.05352        0.06678
C         -1.98403       -5.86205        0.06695
C         -2.16098       -4.46371        0.06421
C         -2.28726       -3.26648        0.05968
C         -2.40261       -1.86176        0.05226
C         -2.47011       -0.65980        0.04463
C         -2.50988        0.74905        0.03476
C         -2.50784        1.95288        0.02614
C         -2.46142        3.36151        0.01642
C         -2.38302        4.56278        0.00899
C         -2.24559        5.96546        0.00180
C         -2.08987        7.15918       -0.00265
C         -1.86429        8.55043       -0.00560
C         -1.63722        9.73267       -0.00606
C         -1.33460       11.10923       -0.00418
C         -1.04902       12.27872       -0.00062
C         -0.68800       13.64115        0.00556
C         -0.36248       14.80018        0.01220
C          0.03266       16.15320        0.02113
C          0.37574       17.30719        0.02922
H          0.67739       18.32160        0.03635
