42
	Energy:      25.2134861
C          0.54314      -24.32893        0.00719
C          0.96104      -23.21022        0.03004
C          1.36881      -21.87755        0.05479
C          1.57755      -20.70232        0.07227
C          1.60618      -19.30994        0.08628
C          1.43137      -18.12930        0.09134
C          1.01995      -16.79813        0.08850
C          0.54466      -15.70263        0.07875
C         -0.08372      -14.45812        0.05944
C         -0.61195      -13.38711        0.03698
C         -1.14656      -12.10030        0.00501
C         -1.47275      -10.95230       -0.02565
C         -1.65659       -9.57198       -0.06278
C         -1.63342       -8.37887       -0.09291
C         -1.41684       -7.00267       -0.12310
C         -1.11687       -5.84689       -0.14209
C         -0.69540       -4.51807       -0.15397
C         -0.33942       -3.37807       -0.15337
C          0.00787       -2.02847       -0.13860
C          0.19515       -0.84970       -0.11330
C          0.25240        0.54144       -0.06998
C          0.15729        1.73046       -0.02378
C         -0.10001        3.09850        0.03631
C         -0.40169        4.25268        0.08776
C         -0.79139        5.58974        0.14207
C         -1.09495        6.74401        0.17791
C         -1.35381        8.11276        0.20204
C         -1.44446        9.30287        0.20360
C         -1.36891       10.69326        0.18169
C         -1.14924       11.86576        0.14441
C         -0.74172       13.19651        0.08436
C         -0.31337       14.30936        0.02586
C          0.21771       15.59582       -0.04253
C          0.63469       16.71325       -0.09297
C          1.01621       18.05208       -0.13477
C          1.20514       19.23016       -0.15025
C          1.24062       20.62193       -0.14220
C          1.12077       21.80892       -0.11470
C          0.84395       23.17320       -0.06419
C          0.54836       24.32871       -0.01317
H          0.28568       25.35293        0.03205
H          0.17243      -25.32001       -0.01293
