4
	Energy:       0.4698886
C          0.00000        0.00000       -0.58925
C          0.00000        0.00000        0.58925
H          0.00000        0.00000       -1.64763
H          0.00000        0.00000        1.64763
