6
	Energy:       2.8052638
C          0.00000        0.00000       -1.84835
C          0.00000        0.00000       -0.67790
H          0.00000        0.00000       -2.90669
C          0.00000        0.00000        0.67790
C          0.00000        0.00000        1.84835
H          0.00000        0.00000        2.90669
