30
	Energy:       0.7589323
C          0.15712      -16.84960       -0.02637
C          0.08410      -15.65196        0.04861
H          0.22105      -17.90393       -0.09241
C         -0.01334      -14.25109        0.13255
C         -0.11781      -13.05526        0.19742
C         -0.27403      -11.65881        0.26204
C         -0.44333      -10.46947        0.30488
C         -0.68694       -9.08451        0.33847
C         -0.93423       -7.90818        0.35180
C         -1.26596       -6.54119        0.34906
C         -1.57888       -5.38060        0.33157
C         -1.96958       -4.02968        0.29474
C         -2.31189       -2.87804        0.25139
C         -2.70771       -1.52946        0.18946
C         -3.02575       -0.37155        0.13014
C         -3.35718        0.99370        0.05675
C         -3.58834        2.17183       -0.00568
C         -3.78134        3.56354       -0.07466
C         -3.86527        4.76162       -0.12657
C         -3.85683        6.16733       -0.17588
C         -3.75068        7.36434       -0.20567
C         -3.50792        8.74967       -0.22427
C         -3.20142        9.91202       -0.22547
C         -2.73457       11.23883       -0.20986
C         -2.25474       12.34076       -0.18313
C         -1.61386       13.59231       -0.13817
C         -1.01540       14.63399       -0.09070
C         -0.27401       15.82821       -0.02766
C          0.37574       16.83832        0.02922
H          0.94768       17.72739        0.07933
