48
	Energy:      58.8973696
C          0.69764      -28.06789        0.00225
C          0.44036      -26.93035        0.00256
C          0.20773      -25.60191        0.00282
C          0.10889      -24.43984        0.00273
C          0.11344      -23.09141        0.00203
C          0.17496      -21.92638        0.00072
C          0.24555      -20.57979       -0.00163
C          0.24437      -19.41309       -0.00421
C          0.14265      -18.06881       -0.00748
C         -0.01794      -16.91286       -0.01009
C         -0.24083      -15.58291       -0.01245
C         -0.40789      -14.42753       -0.01364
C         -0.52690      -13.08429       -0.01384
C         -0.55045      -11.91682       -0.01289
C         -0.50168      -10.56874       -0.01038
C         -0.43081       -9.40267       -0.00690
C         -0.35542       -8.05536       -0.00145
C         -0.32506       -6.88711        0.00413
C         -0.34205       -5.53718        0.01075
C         -0.39741       -4.36925        0.01544
C         -0.49449       -3.02174        0.01843
C         -0.58919       -1.85564        0.01812
C         -0.69173       -0.50734        0.01456
C         -0.75393        0.66171        0.00997
C         -0.77389        2.01510        0.00496
C         -0.72783        3.18568        0.00315
C         -0.59460        4.53410        0.00537
C         -0.42253        5.69379        0.01078
C         -0.19253        7.03097        0.01898
C         -0.01949        8.19150        0.02422
C          0.09619        9.54498        0.02440
C          0.08389       10.71898        0.01689
C         -0.06274       12.07121       -0.00077
C         -0.26278       13.22926       -0.02099
C         -0.50571       14.56992       -0.04531
C         -0.63610       15.73879       -0.06122
C         -0.62073       17.10240       -0.06869
C         -0.43018       18.26357       -0.06300
C         -0.02979       19.56916       -0.04343
C          0.39416       20.66809       -0.01974
C          0.87741       21.94723        0.00959
C          1.18147       23.08541        0.02995
C          1.32192       24.44557        0.04258
C          1.23074       25.62031        0.04170
C          0.91750       26.95287        0.02884
C          0.55966       28.07629        0.01258
H          0.24890       29.08788       -0.00150
H          0.92424      -29.10169        0.00206
