14
	Energy:       3.0653975
C          6.85641        0.00000       -0.00950
C          5.73784        0.00000        0.42299
H          7.84359        0.00000       -0.39100
C          4.41664        0.00000        0.89224
C          3.26540        0.00000        1.22752
C          1.89281        0.00000        1.51132
C          0.70073        0.00000        1.63821
C         -0.70073        0.00000        1.63821
C         -1.89281        0.00000        1.51132
C         -3.26540        0.00000        1.22752
C         -4.41664        0.00000        0.89224
C         -5.73783        0.00000        0.42299
C         -6.85641        0.00000       -0.00950
H         -7.84359        0.00000       -0.39100
