34
	Energy:       1.3643696
C          0.32559      -19.34209       -0.01905
C          0.46964      -18.15283        0.08586
C          0.62330      -16.75894        0.20422
C          0.72756      -15.56462        0.29730
C          0.80494      -14.16284        0.39281
C          0.82185      -12.96240        0.45937
C          0.77558      -11.55725        0.51671
C          0.67423      -10.35951        0.54598
C          0.48152       -8.96573        0.55591
C          0.25531       -7.78486        0.54338
C         -0.07599       -6.41781        0.50489
C         -0.40750       -5.26309        0.45332
C         -0.84086       -3.92657        0.37363
C         -1.23671       -2.79397        0.29214
C         -1.71500       -1.47472        0.18471
C         -2.12058       -0.34684        0.08659
C         -2.57492        0.97998       -0.03146
C         -2.92881        2.12502       -0.13075
C         -3.28596        3.48185       -0.24077
C         -3.52645        4.65706       -0.32527
C         -3.71770        6.04873       -0.40909
C         -3.79222        7.24760       -0.46441
C         -3.76689        8.65388       -0.50733
C         -3.64482        9.84999       -0.52357
C         -3.38490       11.23294       -0.51792
C         -3.06758       12.39250       -0.49238
C         -2.59406       13.71668       -0.43971
C         -2.11433       14.81765       -0.37755
C         -1.47986       16.07078       -0.28781
C         -0.89139       17.11597       -0.20018
C         -0.16535       18.31679       -0.08868
C          0.46970       19.33345        0.01013
H          1.02848       20.22804        0.09708
H          0.19868      -20.38873       -0.11138
