22
	Energy:       0.2775097
C         11.85587        0.00000        0.03353
C         10.74833        0.00000       -0.43611
H         12.83023        0.00000        0.44668
C          9.44645        0.00000       -0.97251
C          8.32446        0.00000       -1.40628
C          6.99601        0.00000       -1.87260
C          5.84556        0.00000       -2.22378
C          4.48062        0.00000       -2.56866
C          3.29979        0.00000       -2.79758
C          1.90403        0.00000       -2.98107
C          0.70388        0.00000       -3.06060
C         -0.70388        0.00000       -3.06061
C         -1.90403        0.00000       -2.98107
C         -3.29980        0.00000       -2.79758
C         -4.48062        0.00000       -2.56866
C         -5.84556        0.00000       -2.22378
C         -6.99601        0.00000       -1.87260
C         -8.32446        0.00000       -1.40628
C         -9.44645        0.00000       -0.97251
C        -10.74833        0.00000       -0.43611
C        -11.85587        0.00000        0.03353
H        -12.83023        0.00000        0.44668
