52
	Energy:      10.5607084
C          0.78598      -30.56099       -0.00269
C          0.80879      -29.37104        0.14097
C          0.80852      -27.97849        0.29734
C          0.76157      -26.78604        0.40995
C          0.63442      -25.39412        0.50684
C          0.45430      -24.21002        0.55216
C          0.16055      -22.84009        0.55628
C         -0.15240      -21.68369        0.51659
C         -0.57267      -20.35025        0.42185
C         -0.95550      -19.22026        0.30492
C         -1.40390      -17.90339        0.13467
C         -1.76096      -16.77068       -0.02879
C         -2.12168      -15.43112       -0.22781
C         -2.35993      -14.26757       -0.39047
C         -2.54064      -12.88787       -0.55683
C         -2.60453      -11.69569       -0.66470
C         -2.57565      -10.29646       -0.73859
C         -2.47420       -9.10194       -0.74871
C         -2.28527       -7.71408       -0.69425
C         -2.08792       -6.53591       -0.59125
C         -1.84165       -5.16779       -0.40960
C         -1.64310       -4.00208       -0.21080
C         -1.44676       -2.64050        0.05970
C         -1.32533       -1.47359        0.30769
C         -1.24592       -0.10439        0.59891
C         -1.23112        1.07226        0.82990
C         -1.26696        2.45500        1.06012
C         -1.32650        3.64392        1.20596
C         -1.40767        5.04057        1.30286
C         -1.46141        6.23869        1.31281
C         -1.48007        7.63872        1.23416
C         -1.43501        8.82856        1.09029
C         -1.29371       10.20103        0.83929
C         -1.08782       11.35066        0.56618
C         -0.74815       12.66013        0.19568
C         -0.38262       13.75072       -0.14520
C          0.11477       14.99830       -0.55104
C          0.57597       16.05483       -0.88396
C          1.12869       17.29528       -1.23763
C          1.58074       18.37741       -1.49176
C          2.05120       19.68018       -1.71621
C          2.37000       20.83101       -1.83223
C          2.61454       22.21188       -1.86906
C          2.69186       23.40765       -1.81176
C          2.61785       24.79832       -1.64364
C          2.41781       25.96047       -1.42268
C          2.04150       27.27042       -1.08907
C          1.62488       28.34573       -0.75676
C          1.05995       29.55838       -0.33141
C          0.54594       30.57529        0.04630
H          0.09263       31.47192        0.37892
H          0.76519      -31.61152       -0.12927
