12
	Energy:      11.8497097
C          0.00000        0.00000       -5.60584
C          0.00000        0.00000       -4.44097
H          0.00000        0.00000       -6.66418
C          0.00000        0.00000       -3.09415
C          0.00000        0.00000       -1.92922
C          0.00000        0.00000       -0.58245
C          0.00000        0.00000        0.58245
C          0.00000        0.00000        1.92922
C          0.00000        0.00000        3.09415
C          0.00000        0.00000        4.44097
C          0.00000        0.00000        5.60584
H          0.00000        0.00000        6.66418
