52
	Energy:      -5.3494042
C          0.78598      -31.51586       -0.00269
C          0.55012      -30.33581       -0.02272
H          0.99329      -32.55355        0.01494
C          0.27373      -28.95440       -0.04472
C          0.03731      -27.77445       -0.06095
C         -0.23978      -26.39317       -0.07569
C         -0.47640      -25.21320       -0.08360
C         -0.75262      -23.83168       -0.08654
C         -0.98682      -22.65121       -0.08307
C         -1.25740      -21.26862       -0.07174
C         -1.48351      -20.08668       -0.05588
C         -1.73994      -18.70158       -0.03043
C         -1.94913      -17.51673       -0.00347
C         -2.17934      -16.12730        0.03326
C         -2.36004      -14.93797        0.06784
C         -2.54934      -13.54255        0.11065
C         -2.68840      -12.34772        0.14759
C         -2.82112      -10.94579        0.18957
C         -2.90547       -9.74575        0.22259
C         -2.96722       -8.33870        0.25619
C         -2.98590       -7.13562        0.27892
C         -2.96606       -5.72710        0.29708
C         -2.91241       -4.52489        0.30412
C         -2.80648       -3.12012        0.30151
C         -2.67989       -1.92343        0.28940
C         -2.49117       -0.52761        0.26344
C         -2.29801        0.65977        0.23137
C         -2.03808        2.04349        0.18280
C         -1.79156        3.22034        0.13286
C         -1.47946        4.59246        0.06582
C         -1.19846        5.76093        0.00285
C         -0.85886        7.12590       -0.07561
C         -0.56614        8.29115       -0.14457
C         -0.22706        9.65610       -0.22529
C          0.05288       10.82461       -0.29187
C          0.36273       12.19692       -0.36466
C          0.60598       13.37417       -0.42014
C          0.86002       14.75869       -0.47508
C          1.04583       15.94708       -0.51152
C          1.22274       17.34430       -0.54029
C          1.33618       18.54225       -0.55174
C          1.42298       19.94822       -0.54898
C          1.45729       21.15097       -0.53247
C          1.45156       22.55917       -0.49675
C          1.40951       23.76099       -0.45288
C          1.32008       25.16528       -0.38702
C          1.21376       26.36206       -0.31992
C          1.05963       27.75947       -0.23061
C          0.90878       28.95048       -0.14734
C          0.71648       30.34229       -0.04414
C          0.54594       31.53017        0.04630
H          0.39594       32.57480        0.12586
