42
	Energy:      -5.0240255
C          0.54314      -25.15661        0.00719
C          0.30816      -23.97698       -0.05112
H          0.74964      -26.19335        0.05845
C          0.03418      -22.59543       -0.11781
C         -0.19758      -21.41500       -0.17186
C         -0.46508      -20.03189       -0.23028
C         -0.68894      -18.84957       -0.27467
C         -0.94434      -17.46366       -0.31894
C         -1.15527      -16.27853       -0.34914
C         -1.39239      -14.88891       -0.37471
C         -1.58495      -13.70033       -0.38758
C         -1.79720      -12.30648       -0.39171
C         -1.96563      -11.11419       -0.38577
C         -2.14623       -9.71599       -0.36783
C         -2.28481       -8.52010       -0.34350
C         -2.42728       -7.11791       -0.30508
C         -2.53077       -5.91892       -0.26464
C         -2.62948       -4.51353       -0.20946
C         -2.69364       -3.31226       -0.15691
C         -2.74441       -1.90481       -0.09050
C         -2.76645       -0.70234       -0.03116
C         -2.76701        0.70581        0.03967
C         -2.74591        1.90826        0.09965
C         -2.69619        3.31568        0.16750
C         -2.63284        4.51692        0.22179
C         -2.53496        5.92226        0.27944
C         -2.43204        7.12123        0.32220
C         -2.29006        8.52338        0.36338
C         -2.15172        9.71925        0.38992
C         -1.97118       11.11743        0.41003
C         -1.80262       12.30969        0.41730
C         -1.58999       13.70348        0.41393
C         -1.39691       14.89197        0.40092
C         -1.15898       16.28142        0.37415
C         -0.94718       17.46636        0.34201
C         -0.69061       18.85193        0.29441
C         -0.46561       20.03389        0.24636
C         -0.19666       21.41649        0.18278
C          0.03640       22.59642        0.12374
C          0.31198       23.97733        0.05073
C          0.54836       25.15640       -0.01317
H          0.75607       26.19263       -0.06936
