38
	Energy:      -4.2082438
C          0.43193      -22.57893       -0.00022
C          0.30902      -21.38327       -0.05822
H          0.53995      -23.63051        0.05079
C          0.16335      -19.98372       -0.12427
C          0.03577      -18.78836       -0.17729
C         -0.11858      -17.38940       -0.23364
C         -0.25569      -16.19467       -0.27526
C         -0.42281      -14.79662       -0.31489
C         -0.57118      -13.60277       -0.33973
C         -0.75079      -12.20582       -0.35722
C         -0.90806      -11.01286       -0.36154
C         -1.09483       -9.61676       -0.35372
C         -1.25436       -8.42421       -0.33597
C         -1.43830       -7.02811       -0.30251
C         -1.58990       -5.83502       -0.26374
C         -1.75754       -4.43760       -0.20747
C         -1.88887       -3.24279       -0.15148
C         -2.02520       -1.84274       -0.07839
C         -2.12345       -0.64532       -0.01153
C         -2.21402        0.75799        0.06965
C         -2.26776        1.95809        0.13903
C         -2.30069        3.36406        0.21775
C         -2.30143        4.56574        0.28030
C         -2.26903        5.97241        0.34555
C         -2.21232        7.17347        0.39218
C         -2.11197        8.57782        0.43409
C         -1.99785        9.77547        0.45741
C         -1.83219       11.17421        0.46890
C         -1.66499       12.36583        0.46449
C         -1.44135       13.75637        0.44254
C         -1.22900       14.94034        0.40983
C         -0.95833       16.32163        0.35616
C         -0.71134       17.49792        0.29863
C         -0.40704       18.87098        0.21956
C         -0.13754       20.04135        0.14434
C          0.18564       21.40923        0.04993
C          0.46472       22.57685       -0.03327
H          0.71012       23.60373       -0.10647
