30
	Energy:      -3.2102783
C          0.15712      -17.42266       -0.02637
C         -0.04564      -16.23593       -0.01580
H          0.33529      -18.46585       -0.03567
C         -0.28111      -14.84616       -0.00383
C         -0.47852      -13.65858        0.00567
C         -0.70328      -12.26710        0.01561
C         -0.88760      -11.07742        0.02281
C         -1.09223       -9.68284        0.02951
C         -1.25508       -8.49003        0.03362
C         -1.42935       -7.09132        0.03649
C         -1.56171       -5.89474        0.03732
C         -1.69483       -4.49152        0.03653
C         -1.78746       -3.29122        0.03452
C         -1.86881       -1.88406        0.03091
C         -1.91311       -0.68102        0.02703
C         -1.93348        0.72832        0.02196
C         -1.92266        1.93213        0.01749
C         -1.87575        3.34083        0.01252
C         -1.80610        4.54266        0.00878
C         -1.68988        5.94734        0.00535
C         -1.56186        7.14437        0.00342
C         -1.37963        8.54203        0.00253
C         -1.19847        9.73218        0.00301
C         -0.95914       11.12120        0.00503
C         -0.73474       12.30397        0.00793
C         -0.45235       13.68490        0.01255
C         -0.19851       14.86173        0.01731
C          0.10899       16.23737        0.02358
C          0.37574       17.41139        0.02922
H          0.61026       18.44340        0.03419
