26
	Energy:      -2.4758858
C         -0.03389       14.84252        0.00205
C          0.10858       13.64869       -0.00119
H         -0.15909       15.89343        0.00491
C          0.27551       12.25169       -0.00488
C          0.41821       11.05791       -0.00784
C          0.58463        9.66095       -0.01100
C          0.72520        8.46693       -0.01336
C          0.88585        7.06930       -0.01567
C          1.01721        5.87423       -0.01720
C          1.16061        4.47474       -0.01847
C          1.27034        3.27748       -0.01910
C          1.37929        1.87490       -0.01931
C          1.45113        0.67478       -0.01908
C          1.50572       -0.73095       -0.01838
C          1.52301       -1.93309       -0.01745
C          1.50540       -3.33975       -0.01605
C          1.45556       -4.54096       -0.01463
C          1.35538       -5.94415       -0.01279
C          1.23426       -7.14027       -0.01110
C          1.05283       -8.53530       -0.00904
C          0.86722       -9.72311       -0.00724
C          0.61905      -11.10786       -0.00512
C          0.38651      -12.28742       -0.00330
C          0.09746      -13.66433       -0.00118
C         -0.15638      -14.83953        0.00063
H         -0.37986      -15.87400        0.00222
