30
	Energy:      13.6651600
C          0.15712      -17.89153       -0.02637
C          0.14084      -16.70302       -0.01997
H          0.18562      -18.97507       -0.04262
C          0.11292      -15.23289       -0.01239
C          0.10529      -14.04109       -0.00878
C          0.06932      -12.56995       -0.00414
C          0.05633      -11.37820       -0.00091
C          0.04149       -9.91107       -0.00083
C          0.00770       -8.72311        0.00925
C         -0.01250       -7.24090        0.01563
C         -0.04676       -6.06424        0.01265
C         -0.06648       -4.58220        0.01685
C         -0.07576       -3.40176        0.01191
C         -0.11077       -1.92724        0.01360
C         -0.11868       -0.73543        0.01830
C         -0.13728        0.73163        0.00625
C         -0.13981        1.92352        0.00967
C         -0.13316        3.40206       -0.00335
C         -0.13820        4.58264        0.00005
C         -0.10998        6.06097       -0.00063
C         -0.08811        7.23760       -0.00739
C         -0.05565        8.71963       -0.00558
C         -0.00655        9.91094       -0.01361
C          0.03316       11.37728       -0.00434
C          0.09600       12.56801        0.00221
C          0.17030       14.03373        0.00354
C          0.22378       15.22027        0.01264
C          0.31528       16.70085        0.02041
C          0.37574       17.88026        0.02922
H          0.41134       18.94115        0.04080
