4
	Energy:       1.4402063
C          0.00000        0.00000       -0.62570
C          0.00000        0.00000        0.62570
H          0.00000        0.00000       -1.68408
H          0.00000        0.00000        1.68408
