22
	Energy:       7.5225740
C         12.58922        0.00000        0.03353
C         11.40290       -0.00326        0.01987
H         13.65414        0.00275        0.04557
C          9.92350       -0.00725        0.00315
C          8.73710       -0.00991       -0.00925
C          7.25778       -0.01214       -0.02322
C          6.07135       -0.01219       -0.03239
C          4.59200       -0.01014       -0.04133
C          3.40554       -0.00641       -0.04547
C          1.92619       -0.00022       -0.04725
C          0.73972        0.00492       -0.04533
C         -0.73962        0.01010       -0.04009
C         -1.92609        0.01142       -0.03427
C         -3.40542        0.00957       -0.02647
C         -4.59188        0.00504       -0.02064
C         -6.07121       -0.00233       -0.01388
C         -7.25766       -0.00743       -0.00817
C         -8.73702       -0.01114        0.00017
C         -9.92345       -0.01021        0.00897
C        -11.40289       -0.00546        0.02203
C        -12.58922        0.00000        0.03353
H        -13.65415        0.00445        0.04363
