52
	Energy:       9.4040587
C          0.78598      -32.45183       -0.00269
C          0.51950      -31.30609        0.21533
C          0.20914      -29.83977        0.44649
C          0.02282      -28.66186        0.54096
C         -0.13090      -27.15358        0.54793
C         -0.16149      -25.96189        0.44775
C         -0.10829      -24.46193        0.23252
C          0.00087      -23.28887        0.02453
C          0.18249      -21.80609       -0.23597
C          0.32488      -20.62814       -0.38896
C          0.46727      -19.12263       -0.49750
C          0.50215      -17.92692       -0.48498
C          0.44152      -16.41646       -0.37162
C          0.28480      -15.24046       -0.21786
C         -0.01688      -13.77224        0.00958
C         -0.31941      -12.62646        0.17381
C         -0.73023      -11.17584        0.33286
C         -1.02274      -10.01693        0.38419
C         -1.31253       -8.52940        0.36324
C         -1.41787       -7.34103        0.27462
C         -1.40244       -5.83483        0.10902
C         -1.25516       -4.65634       -0.03479
C         -0.95673       -3.17965       -0.19855
C         -0.67280       -2.02023       -0.27822
C         -0.31896       -0.54725       -0.31094
C         -0.11291        0.63028       -0.26763
C          0.02798        2.13392       -0.15037
C          0.00071        3.32308       -0.02481
C         -0.16904        4.81922        0.14051
C         -0.38561        5.99103        0.24344
C         -0.68923        7.47303        0.32366
C         -0.87714        8.65418        0.32510
C         -1.00107       10.16219        0.26171
C         -0.94155       11.35254        0.16347
C         -0.69454       12.83855        0.00974
C         -0.37013       13.98345       -0.10969
C          0.12047       15.41072       -0.23706
C          0.49817       16.54392       -0.29651
C          0.89409       18.00526       -0.32151
C          1.05383       19.19003       -0.29489
C          1.06320       20.70197       -0.22212
C          0.89651       21.88361       -0.14561
C          0.55003       23.35417       -0.04467
C          0.23408       24.50552        0.02343
C         -0.13139       25.97344        0.08913
C         -0.29761       27.15721        0.11641
C         -0.32987       28.67034        0.12488
C         -0.17190       29.85544        0.11106
C          0.18760       31.32579        0.07823
C          0.54594       32.46614        0.04630
H          0.86586       33.48156        0.01879
H          1.02183      -33.47192       -0.19757
