18
	Energy:       5.2075492
C          0.01456        9.93536        0.00000
C          0.01693        8.74825        0.00024
H          0.00960       11.00034       -0.00012
C          0.01496        7.26625        0.00064
C          0.00940        6.07908        0.00099
C          0.00093        4.59722        0.00138
C         -0.00458        3.41004        0.00149
C         -0.00917        1.92818        0.00136
C         -0.01034        0.74098        0.00097
C         -0.00924       -0.74088        0.00034
C         -0.00651       -1.92809        0.00002
C         -0.00297       -3.40996        0.00007
C         -0.00213       -4.59716        0.00071
C         -0.00242       -6.07907        0.00185
C          0.00015       -7.26626        0.00233
C          0.00956       -8.74826        0.00179
C          0.02365       -9.93530        0.00000
H          0.03883      -11.00018       -0.00229
