48
	Energy:      22.7849528
C          0.69764      -29.80432        0.00225
C          0.66391      -28.62381       -0.10181
C          0.61103      -27.15073       -0.18869
C          0.54640      -25.96697       -0.17647
C          0.44393      -24.49689       -0.08578
C          0.35053      -23.31911        0.01261
C          0.23546      -21.85065        0.11186
C          0.15774      -20.66776        0.12454
C          0.07874      -19.19467        0.07246
C          0.02578      -18.01251        0.00129
C         -0.04055      -16.54000       -0.07527
C         -0.10690      -15.35648       -0.08552
C         -0.20523      -13.88452       -0.04447
C         -0.29219      -12.70363        0.01153
C         -0.39621      -11.23278        0.07006
C         -0.45902      -10.04908        0.07330
C         -0.50927       -8.57498        0.03182
C         -0.52361       -7.39087       -0.02028
C         -0.52441       -5.91644       -0.07409
C         -0.52298       -4.73115       -0.07732
C         -0.52753       -3.25640       -0.03881
C         -0.53970       -2.07232        0.01292
C         -0.55812       -0.59850        0.07250
C         -0.56476        0.58661        0.08909
C         -0.55717        2.06152        0.07357
C         -0.53136        3.24595        0.03915
C         -0.48246        4.71932       -0.00687
C         -0.43532        5.90339       -0.02676
C         -0.37624        7.37700       -0.03023
C         -0.33422        8.56137       -0.02134
C         -0.28708       10.03530       -0.01106
C         -0.24831       11.21980       -0.01530
C         -0.19233       12.69331       -0.03233
C         -0.13216       13.87683       -0.04536
C         -0.04044       15.34862       -0.04903
C          0.04553       16.53047       -0.03103
C          0.15628       18.00044        0.00779
C          0.23567       19.18250        0.03786
C          0.31611       20.65481        0.05850
C          0.35769       21.83910        0.04649
C          0.38957       23.31287        0.00653
C          0.40651       24.49722       -0.03161
C          0.42947       25.97130       -0.06625
C          0.45987       27.15599       -0.06385
C          0.51119       28.62946       -0.02997
C          0.55966       29.81272        0.01258
H          0.60186       30.87632        0.04695
H          0.73074      -30.86540        0.08726
