26
	Energy:       9.9422577
C         -0.03389       15.24204        0.00205
C         -0.02797       14.05616        0.00238
H         -0.03928       16.30702        0.00162
C         -0.02346       12.57845        0.00175
C         -0.02399       11.39247        0.00003
C         -0.02721        9.91489       -0.00251
C         -0.02847        8.72888       -0.00347
C         -0.02631        7.25133       -0.00294
C         -0.01984        6.06531       -0.00115
C         -0.00753        4.58783        0.00156
C          0.00528        3.40185        0.00311
C          0.02331        1.92442        0.00409
C          0.03884        0.73847        0.00418
C          0.05818       -0.73896        0.00375
C          0.07200       -1.92492        0.00259
C          0.08601       -3.40243       -0.00013
C          0.09203       -4.58844       -0.00345
C          0.09228       -6.06605       -0.00713
C          0.08241       -7.25201       -0.00640
C          0.05831       -8.72945       -0.00022
C          0.02719       -9.91499        0.00861
C         -0.02081      -11.39185        0.01917
C         -0.06312      -12.57707        0.02052
C         -0.11591      -14.05390        0.01285
C         -0.15638      -15.23905        0.00063
H         -0.19150      -16.30340       -0.01018
